##############################################################################
#                                                                            #
# This CIF contains the data in a paper accepted for publication in Journal  #
# of Applied Crystallography. It has been peer reviewed under the auspices   #
# of the IUCr Commission on Journals.                                        #
#                                                                            #
# Full details of the Crystallographic Information File format               #
# are given in the paper "The Crystallographic Information File (CIF):       #
# a New Standard Archive File for Crystallography" by S. R. Hall, F. H.      #
# Allen and I. D. Brown [Acta Cryst. (1991), A47, 655-685].                  #
#                                                                            #
# The current version of the core CIF dictionary may be obtained from        #
# ftp://ftp.iucr.org/pub/cif_core.dic. The current version number is 2.0.1.  #
#                                                                            #
# Software is freely available for graphical display of the structure(s) in  #
# this CIF.  For information consult the CIF home page http://www.iucr.org/  #
# cif/home.html                                                              #
#                                                                            #
# This file may be used for bona fide research purposes within the           #
# scientific community so long as proper attribution is given to the journal #
# article from which it was obtained.                                        #
#                                                                            #
##############################################################################
data_KADU445_publ

_publ_block_id 'Aug 19 11:03:38 |KADU445_overall|||'
_audit_creation_date  'Aug 19 11:03:38' 
_audit_creation_method  "from EXP file using GSAS2CIF"
_audit_update_record
; Aug 19 11:03:38 2001  Initial CIF as created by GSAS2CIF
;

_publ_contact_author                
; James A. Kaduk
  BP Chemicals
  P.O. Box 3011 MC F-9
  150 W. Warrenville Rd.
  Naperville IL 60566 USA
;

#_publ_contact_author_email          kadukja@bp.com

#_publ_contact_author_fax            "630-420-5252"

#_publ_contact_author_phone          "630-420-4547"

#_publ_contact_letter                ?

#_publ_requested_journal             "J. Applied Cryst."

_publ_section_title
;20306-44-1, Ni/NDA (KADU445)                                     
  
;

loop_
_publ_author_name
_publ_author_address
?
;
?
;

#_publ_section_abstract              ?

#_publ_section_comment               ?

#_publ_section_acknowledgements      ?

#_publ_section_references            ?

#_publ_section_figure_captions       ?

#_publ_section_exptl_prep            ?

#_publ_section_exptl_refinement      ?

data_KADU445
#KADU445_overall

_refine_ls_shift/esd_max               0.04
_refine_ls_shift/esd_mean              0.01
_computing_structure_refinement        GSAS
_refine_ls_number_parameters           52
_refine_ls_goodness_of_fit_all         3.02
_refine_ls_number_restraints           30
#data_KADU445_phase_1

_pd_block_id 'Aug 19 11:03:38 |PHASE_1||'

_pd_phase_name                         "Ni C12 H6 O4 . 4 H2 O"
_cell_length_a                         10.0848(4)
_cell_length_b                         10.9428(5)
_cell_length_c                         6.26386(29)
_cell_angle_alpha                      98.9870(24)
_cell_angle_beta                       87.4273(29)
_cell_angle_gamma                      108.0158(18)
_symmetry_cell_setting                 triclinic
_symmetry_space_group_name_H-M         "P -1"
loop_ _symmetry_equiv_pos_as_xyz
   +x,+y,+z -x,-y,-z                                              
                

loop_ _atom_site_label
      _atom_site_fract_x
      _atom_site_fract_y
      _atom_site_fract_z
      _atom_site_occupancy
      _atom_site_thermal_displace_type
      _atom_site_U_iso_or_equiv
      _atom_site_symmetry_multiplicity
C1      0.3539(10)   1.1253(7)    0.7132(10)   1.0        Uiso  
0.0312(21)    2
C2      0.4652(9)    1.1749(7)    0.5782(11)   1.0        Uiso  
0.0312(21)    2
C3      0.4631(9)    1.1189(8)    0.3616(11)   1.0        Uiso  
0.0312(21)    2
C4      0.3497(10)   1.0133(8)    0.2805(9)    1.0        Uiso  
0.0312(21)    2
C5      0.1241(10)   0.8574(7)    0.3347(10)   1.0        Uiso  
0.0312(21)    2
C6      0.0128(10)   0.8077(7)    0.4697(13)   1.0        Uiso  
0.0312(21)    2
C7      0.0148(10)   0.8638(7)    0.6862(12)   1.0        Uiso  
0.0312(21)    2
C8      0.1282(10)   0.9694(7)    0.7673(10)   1.0        Uiso  
0.0312(21)    2
C9      0.2400(9)    1.0195(7)    0.6326(9)    1.0        Uiso  
0.0312(21)    2
C10     0.2379(9)    0.9632(7)    0.4153(9)    1.0        Uiso  
0.0312(21)    2
H1      0.3568(11)   1.1698(8)    0.8812(11)   1.0        Uiso  
0.05          2
H3      0.5496(10)   1.1574(9)    0.2565(13)   1.0        Uiso  
0.05          2
H4      0.3495(11)   0.9707(9)    0.1119(9)    1.0        Uiso  
0.05          2
H5      0.1211(11)   0.8129(9)    0.1667(11)   1.0        Uiso  
0.05          2
H7     -0.0716(10)   0.8253(8)    0.7914(14)   1.0        Uiso  
0.05          2
H8      0.1284(11)   1.0120(9)    0.9360(11)   1.0        Uiso  
0.05          2
C11     0.5877(10)   1.2891(8)    0.6662(14)   1.0        Uiso  
0.0217(23)    2
C12    -0.1097(10)   0.6936(8)    0.3817(16)   1.0        Uiso  
0.0217(23)    2
O1      0.5949(12)   1.3121(12)   0.8684(23)   1.0        Uiso  
0.0217(23)    2
O2      0.6826(15)   1.3411(12)   0.5260(19)   1.0        Uiso  
0.0217(23)    2
O3     -0.2203(17)   0.6798(13)   0.4952(18)   1.0        Uiso  
0.0217(23)    2
O4     -0.0989(15)   0.6339(12)   0.2141(25)   1.0        Uiso  
0.0217(23)    2
Ni      0.7479(6)    1.4790(5)    1.0272(9)    1.0        Uiso  
0.0357(17)    2
O5      0.8846(15)   1.4778(14)   0.7601(20)   1.0        Uiso  
0.0284(26)    2
O6      0.6051(15)   1.4822(12)   1.2782(23)   1.0        Uiso  
0.0284(26)    2
O7      0.8289(13)   1.3466(11)   1.1448(20)   1.0        Uiso  
0.0284(26)    2
O8      0.6873(16)   1.6231(11)   0.8983(23)   1.0        Uiso  
0.0284(26)    2
H5a     0.86528      1.38675      0.74713      1.0        Uiso  
0.03          2
H5b     0.97172      1.50115      0.85866      1.0        Uiso  
0.03          2
H6a     0.53731      1.39076      1.26716      1.0        Uiso  
0.03          2
H6b     0.55396      1.54789      1.2619       1.0        Uiso  
0.03          2
H7a     0.84631      1.38881      1.30045      1.0        Uiso  
0.03          2
H7b     0.74702      1.27221      1.15524      1.0        Uiso  
0.03          2
H8a     0.67419      1.57228      0.75349      1.0        Uiso  
0.03          2
H8b     0.58858      1.59919      0.9664       1.0        Uiso  
0.03          2

loop_ _atom_type_symbol
      _atom_type_number_in_cell
                   C  24.0        
                   H  28.0        
                   O  16.0        
                   NI  2.0        
#data_KADU445_p_01

#_pd_block_id 'Aug 19 11:03:38 |POWSET_01||  Scintag PAD V'                  
      
#_pd_meas_datetime_initiated           ?
#_pd_meas_info_author_name             ?
#_pd_meas_info_author_email            ?
#_pd_meas_info_author_address          ?
#_pd_meas_info_author_telephone        ?
#_diffrn_ambient_temperature           ?
#_diffrn_ambient_environment           ?
#_diffrn_ambient_pressure              ?
#_diffrn_radiation_source              ?
#_diffrn_radiation_detector            ?
#loop_  _pd_phase_id
_pd_phase_block_id      'Aug 19 11:03:38 |PHASE_1||'
_pd_instr_radiation_probe              x-ray
_diffrn_radiation_polarisn_ratio       0.5

loop_ _diffrn_radiation_wavelength
      _diffrn_radiation_wavelength_wt
      _diffrn_radiation_type
                      1.540629      1.000   KG~1~
                      1.544451      0.500   KG~2~
_pd_proc_ls_prof_R_factor              0.0491
_pd_proc_ls_prof_wR_factor             0.0648
_pd_proc_ls_prof_wR_expected           0.0216
_pd_proc_info_datetime                 "Aug 19 11:03:38 2001"
_pd_calc_method                        "Rietveld Refinement"
_pd_meas_2theta_range_min              13.02
_pd_meas_2theta_range_max              89.96
_pd_meas_2theta_range_inc              0.02
_pd_proc_2theta_range_min              13.0429
_pd_proc_2theta_range_max              89.9829
_pd_proc_2theta_range_inc              0.02

_pd_meas_number_of_points              3848
_pd_proc_number_of_points              3848

_reflns_number_observed                2087
_reflns_limit_h_min                    0
_reflns_limit_h_max                    9
_reflns_limit_k_min                    -10
_reflns_limit_k_max                    9
_reflns_limit_l_min                    -5
_reflns_limit_l_max                    5
_reflns_d_resolution_high              1.090
_reflns_d_resolution_low               6.187
#--eof--eof--eof--eof--eof--eof--eof--eof--eof--eof--eof--eof--eof--eof--eof--#
data_KADU440
#KADU440_overall

_refine_ls_shift/esd_max               0.04
_refine_ls_shift/esd_mean              0.01
_computing_structure_refinement        GSAS
_refine_ls_number_parameters           52
_refine_ls_goodness_of_fit_all         1.58
_refine_ls_number_restraints           30
#data_KADU440_phase_1

#_pd_block_id 'Aug 22 14:00:22 |PHASE_1||'

_pd_phase_name                         "Ni C12 H6 O4 . 4 H2 O"
_cell_length_a                         10.1856(6)
_cell_length_b                         10.8931(6)
_cell_length_c                         6.2902(5)
_cell_angle_alpha                      98.522(4)
_cell_angle_beta                       87.573(4)
_cell_angle_gamma                      108.2999(28)
_symmetry_cell_setting                 triclinic
_symmetry_space_group_name_H-M         "P -1"
loop_ _symmetry_equiv_pos_as_xyz
   +x,+y,+z -x,-y,-z                                                           
   

loop_ _atom_site_label
      _atom_site_fract_x
      _atom_site_fract_y
      _atom_site_fract_z
      _atom_site_occupancy
      _atom_site_thermal_displace_type
      _atom_site_U_iso_or_equiv
      _atom_site_symmetry_multiplicity
C1      0.3455(19)   1.1260(15)   0.7076(20)   1.0        Uiso   0.041(4)     
2
C2      0.4611(18)   1.1748(15)   0.5814(21)   1.0        Uiso   0.041(4)     
2
C3      0.4669(19)   1.1159(15)   0.3697(20)   1.0        Uiso   0.041(4)     
2
C4      0.3570(21)   1.0084(15)   0.2846(18)   1.0        Uiso   0.041(4)     
2
C5      0.1306(21)   0.8515(14)   0.3259(21)   1.0        Uiso   0.041(4)     
2
C6      0.0150(20)   0.8027(13)   0.4521(24)   1.0        Uiso   0.041(4)     
2
C7      0.0092(19)   0.8615(14)   0.6638(25)   1.0        Uiso   0.041(4)     
2
C8      0.1191(19)   0.9690(15)   0.7488(22)   1.0        Uiso   0.041(4)     
2
C9      0.2352(19)   1.0183(14)   0.6229(19)   1.0        Uiso   0.041(4)     
2
C10     0.2409(20)   0.9592(13)   0.4105(18)   1.0        Uiso   0.041(4)     
2
H1      0.3424(21)   1.1727(18)   0.8718(22)   1.0        Uiso   0.05         
2
H3      0.5567(20)   1.1538(16)   0.2715(23)   1.0        Uiso   0.05         
2
H4      0.3629(23)   0.9637(17)   0.1198(19)   1.0        Uiso   0.05         
2
H5      0.1337(24)   0.8048(16)   0.1616(21)   1.0        Uiso   0.05         
2
H7     -0.0806(20)   0.8237(15)   0.7620(29)   1.0        Uiso   0.05         
2
H8      0.1132(21)   1.0138(18)   0.9136(24)   1.0        Uiso   0.05         
2
C11     0.5798(19)   1.2910(17)   0.6736(26)   1.0        Uiso   0.003(4)     
2
C12    -0.1037(22)   0.6865(14)   0.3598(29)   1.0        Uiso   0.003(4)     
2
O1      0.5868(23)   1.3153(26)   0.864(4)     1.0        Uiso   0.003(4)     
2
O2      0.6787(22)   1.3334(24)   0.535(4)     1.0        Uiso   0.003(4)     
2
O3     -0.2274(28)   0.6865(23)   0.4910(35)   1.0        Uiso   0.003(4)     
2
O4     -0.1012(30)   0.6350(25)   0.207(4)     1.0        Uiso   0.003(4)     
2
Co      0.7467(12)   1.4819(11)   1.0291(19)   1.0        Uiso   0.052(4)     
2
O5      0.8827(26)   1.4659(28)   0.746(4)     1.0        Uiso   0.023(5)     
2
O6      0.6016(25)   1.4904(23)   1.272(4)     1.0        Uiso   0.023(5)     
2
O7      0.8270(24)   1.3479(20)   1.137(4)     1.0        Uiso   0.023(5)     
2
O8      0.6936(29)   1.6234(23)   0.902(4)     1.0        Uiso   0.023(5)     
2
H5a     0.86416      1.38101      0.75995      1.0        Uiso   0.03         
2
H5b     0.96329      1.50775      0.86141      1.0        Uiso   0.03         
2
H6a     0.54693      1.39876      1.25994      1.0        Uiso   0.03         
2
H6b     0.66144      1.49091      1.39108      1.0        Uiso   0.03         
2
H7a     0.84693      1.37086      1.28164      1.0        Uiso   0.03         
2
H7b     0.75374      1.26519      1.11385      1.0        Uiso   0.03         
2
H8a     0.66284      1.56483      0.7441       1.0        Uiso   0.03         
2
H8b     0.59358      1.59916      0.96558      1.0        Uiso   0.03         
2

loop_ _atom_type_symbol
      _atom_type_number_in_cell
                   C  24.0        
                   H  28.0        
                   O  16.0        
                   CO  2.0
        
#data_KADU440_p_01

_pd_block_id
     'Aug 22 14:00:22 |POWSET_01||  Scintag PAD V '                        
#_pd_meas_datetime_initiated           ?
#_pd_meas_info_author_name             ?
#_pd_meas_info_author_email            ?
#_pd_meas_info_author_address          ?
#_pd_meas_info_author_telephone        ?
#_diffrn_ambient_temperature           ?
#_diffrn_ambient_environment           ?
#_diffrn_ambient_pressure              ?
#_diffrn_radiation_source              ?
#_diffrn_radiation_detector            ?
#loop_  _pd_phase_id
_pd_phase_block_id      'Aug 22 14:00:22 |PHASE_1||'
_pd_instr_radiation_probe              x-ray
_diffrn_radiation_polarisn_ratio       0.5

loop_ _diffrn_radiation_wavelength
      _diffrn_radiation_wavelength_wt
      _diffrn_radiation_type
                      1.540629      1.000   KG~1~
                      1.544451      0.500   KG~2~
_pd_proc_ls_prof_R_factor              0.0302
_pd_proc_ls_prof_wR_factor             0.0402
_pd_proc_ls_prof_wR_expected           0.0256
_pd_proc_info_datetime                 "Aug 22 14:00:22 2001"
_pd_calc_method                        "Rietveld Refinement"
_pd_meas_2theta_range_min              13.02
_pd_meas_2theta_range_max              89.96
_pd_meas_2theta_range_inc              0.02
_pd_proc_2theta_range_min              13.0429
_pd_proc_2theta_range_max              89.9829
_pd_proc_2theta_range_inc              0.02


_pd_meas_number_of_points              3848
_pd_proc_number_of_points              3848

_reflns_number_observed                2100
_reflns_limit_h_min                    0
_reflns_limit_h_max                    9
_reflns_limit_k_min                    -10
_reflns_limit_k_max                    9
_reflns_limit_l_min                    -5
_reflns_limit_l_max                    5
_reflns_d_resolution_high              1.091
_reflns_d_resolution_low               6.221
#--eof--eof--eof--eof--eof--eof--eof--eof--eof--eof--eof--eof--eof--eof--eof--
#

