##############################################################################
#                                                                            #
# This CIF contains the data in a paper accepted for publication in Journal  #
# of Applied Crystallography. It has been peer reviewed under the auspices   #
# of the IUCr Commission on Journals.                                        #
#                                                                            #
# Full details of the Crystallographic Information File format               #
# are given in the paper "The Crystallographic Information File (CIF):       #
# a New Standard Archive File for Crystallography" by S. R. Hall, F. H.      #
# Allen and I. D. Brown [Acta Cryst. (1991), A47, 655-685].                  #
#                                                                            #
# The current version of the core CIF dictionary may be obtained from        #
# ftp://ftp.iucr.org/pub/cif_core.dic. The current version number is 2.4.    #
#                                                                            #
# Software is freely available for graphical display of the structure(s) in  #
# this CIF.  For information consult the CIF home page http://www.iucr.org/  #
# cif/home.html                                                              #
#                                                                            #
# This file may be used for bona fide research purposes within the           #
# scientific community so long as proper attribution is given to the journal # 
# article from which it was obtained.                                        #
#                                                                            #
##############################################################################

data_global
_journal_data_validation_number     ?
_journal_date_recd_electronic     2010-10-23
_journal_date_accepted     2011-02-21
_journal_name_full     'Journal of Applied Crystallography'
_journal_year     2011
_journal_volume     44
_journal_issue      2
_journal_page_first     0
_journal_page_last     0
_journal_paper_category     FA
_journal_coeditor_code     KO5132
_publ_contact_author_name     ?
_publ_contact_author_address
; ?
;
_publ_contact_author_email     ?
_publ_contact_author_fax     ?
_publ_contact_author_phone     ?
_publ_section_title
; ' Lithium iron phosphate'
;
_publ_section_title_footnote
;
;
loop_
    _publ_author_name
    _publ_author_footnote
    _publ_author_address
    ?
; ?
;
; ?
;
_publ_section_synopsis
;  ?
;
data_LiFePO4345
_pd_block_diffractogram_id     LiFePO4345
_chemical_name_systematic
; ?
;
_chemical_name_common     ?
_chemical_formula_moiety     ?
_chemical_formula_sum     ?
_chemical_formula_structural     ?
_chemical_formula_analytical     ?
_chemical_formula_iupac     ?
_chemical_formula_weight     ?
_chemical_melting_point     ?
_symmetry_cell_setting     Orthorhombic
_symmetry_space_group_name_H-M     'P n m a'
_symmetry_space_group_name_Hall     '-P 2ac 2n'
loop_
    _symmetry_equiv_pos_as_xyz
    'x,y,z'
    'x+1/2,-y+1/2,-z+1/2'
    '-x,y+1/2,-z'
    '-x+1/2,-y,z+1/2'
    '-x,-y,-z'
    '-x+1/2,y+1/2,z+1/2'
    'x,-y+1/2,z'
    'x+1/2,y,-z+1/2'
_cell_length_a     10.4008(4)
_cell_length_b     6.0523(2)
_cell_length_c     4.7325(2)
_cell_angle_alpha     90.00000
_cell_angle_beta     90.00000
_cell_angle_gamma     90.00000
_cell_volume     297.91(2)
_cell_formula_units_Z     ?
_cell_measurement_temperature     ?
_cell_special_details
; ?
;
_pd_char_colour     ?
_pd_char_particle_morphology     ?
_exptl_absorpt_coefficient_mu     ?
_exptl_absorpt_correction_type     ?
_exptl_absorpt_process_details     ?
_exptl_absorpt_correction_T_min     ?
_exptl_absorpt_correction_T_max     ?
_exptl_special_details
; ?
;
_diffrn_ambient_temperature     ?
_diffrn_radiation_type     ?
_diffrn_radiation_wavelength     0.99814
_diffrn_radiation_monochromator     ?
_diffrn_measurement_device_type     ?
_diffrn_measurement_method     ?
_diffrn_detector_area_resol_mean     ?
_pd_instr_location
; ?
;
_pd_meas_2theta_range_min     3.18605
_pd_meas_2theta_range_max     41.73550
_pd_meas_2theta_range_inc     0.035237
_pd_meas_number_of_points     1096
_pd_meas_scan_method     ?
_pd_meas_special_details
;  ?
;
_refine_special_details
; ?
;
_refine_ls_number_reflns     135
_refine_ls_number_parameters     41
_refine_ls_number_restraints     0
loop_
    _atom_type_symbol
    _atom_type_scat_dispersion_real
    _atom_type_scat_dispersion_imag
    _atom_type_scat_source
    li 0.00032 0.00013
;International Tables for Crystallography Vol. C (1991)
  Tables 6.1.1.4 and 6.1.1.5
;
    fe 0.28930 1.55416
;International Tables for Crystallography Vol. C (1991)
  Tables 6.1.1.4 and 6.1.1.5
;
    p 0.17633 0.19009
;International Tables for Crystallography Vol. C (1991)
  Tables 6.1.1.4 and 6.1.1.5
;
    o 0.02351 0.01325
;International Tables for Crystallography Vol. C (1991)
  Tables 6.1.1.4 and 6.1.1.5
;
_computing_data_collection     ?
_computing_structure_solution     ?
_computing_structure_refinement     FULLPROF
_computing_molecular_graphics     ?
_computing_publication_material     ?
_pd_calibration_special_details
; ?
;
_pd_prep_cool_rate     ?
_pd_prep_pressure     ?
_pd_prep_temperature     ?
_pd_proc_2theta_range_min     3.2044
_pd_proc_2theta_range_max     41.7539
_pd_proc_2theta_range_inc     0.035237
_pd_proc_info_data_reduction     ?
_pd_proc_info_excluded_regions     ?
_pd_proc_ls_background_function     ?
_pd_proc_ls_pref_orient_corr
; ?
;
_pd_proc_ls_prof_R_factor     0.3837
_pd_proc_ls_prof_wR_factor     0.6199
_pd_proc_ls_prof_wR_expected     0.1790
_pd_proc_ls_profile_function     ?
_pd_proc_ls_special_details
; ?
;
_pd_proc_wavelength     0.998140
_pd_spec_mount_mode     ?
_pd_spec_mounting
; ?
;
_pd_spec_shape     ?
_pd_spec_size_axial     ?
_pd_spec_size_equat     ?
_pd_spec_size_thick     ?
loop_
    _atom_site_type_symbol
    _atom_site_label
    _atom_site_fract_x
    _atom_site_fract_y
    _atom_site_fract_z
    _atom_site_U_iso_or_equiv
    _atom_site_adp_type
    _atom_site_occupancy
    Li Li1 0.00000 0.00000 0.00000 0.00000 Uiso 0.996(4)
    Fe Fe1 0.2822(3) 0.25000 0.9769(11) 0.00000 Uiso 0.996(4)
    P P1 0.0991(8) 0.25000 0.416(2) 0.00000 Uiso 1.00581
    O O1 0.094(2) 0.25000 0.726(4) 0.00000 Uiso 1.00581
    O O2 0.458(2) 0.25000 0.207(2) 0.00000 Uiso 1.00581
    O O3 0.1638(13) 0.046(2) 0.2807(17) 0.00000 Uiso 1.00581
    Fe Fe2 0.00000 0.00000 0.00000 0.00000 Uiso 0.010(4)
    Li Li2 0.2822(3) 0.25000 0.9769(11) 0.00000 Uiso 0.010(4)
_geom_special_details     ?
loop_
    _geom_bond_atom_site_label_1
    _geom_bond_atom_site_label_2
    _geom_bond_site_symmetry_1
    _geom_bond_site_symmetry_2
    _geom_bond_distance
    _geom_bond_publ_flag
    ? ? ? ? ? ?
loop_
    _geom_contact_atom_site_label_1
    _geom_contact_atom_site_label_2
    _geom_contact_distance
    _geom_contact_site_symmetry_1
    _geom_contact_site_symmetry_2
    _geom_contact_publ_flag
    ? ? ? ? ? ?
loop_
    _geom_angle_atom_site_label_1
    _geom_angle_atom_site_label_2
    _geom_angle_atom_site_label_3
    _geom_angle_site_symmetry_1
    _geom_angle_site_symmetry_2
    _geom_angle_site_symmetry_3
    _geom_angle
    _geom_angle_publ_flag
    ? ? ? ? ? ? ? ?
loop_
    _geom_torsion_atom_site_label_1
    _geom_torsion_atom_site_label_2
    _geom_torsion_atom_site_label_3
    _geom_torsion_atom_site_label_4
    _geom_torsion_site_symmetry_1
    _geom_torsion_site_symmetry_2
    _geom_torsion_site_symmetry_3
    _geom_torsion_site_symmetry_4
    _geom_torsion
    _geom_torsion_publ_flag
    ? ? ? ? ? ? ? ? ? ?
loop_
    _geom_hbond_atom_site_label_D
    _geom_hbond_atom_site_label_H
    _geom_hbond_atom_site_label_A
    _geom_hbond_site_symmetry_D
    _geom_hbond_site_symmetry_H
    _geom_hbond_site_symmetry_A
    _geom_hbond_distance_DH
    _geom_hbond_distance_HA
    _geom_hbond_distance_DA
    _geom_hbond_angle_DHA
    _geom_hbond_publ_flag
    ? ? ? ? ? ? ? ? ? ? ?
data_LiFe075Mn025PO4345
_pd_block_diffractogram_id     LiFe075Mn025PO4345
_chemical_name_systematic
; ?
;
_chemical_name_common     ?
_chemical_formula_moiety     ?
_chemical_formula_sum     ?
_chemical_formula_structural     ?
_chemical_formula_analytical     ?
_chemical_formula_iupac     ?
_chemical_formula_weight     ?
_chemical_melting_point     ?
_symmetry_cell_setting     Orthorhombic
_symmetry_space_group_name_H-M     'P n m a'
_symmetry_space_group_name_Hall     '-P 2ac 2n'
loop_
    _symmetry_equiv_pos_as_xyz
    'x,y,z'
    'x+1/2,-y+1/2,-z+1/2'
    '-x,y+1/2,-z'
    '-x+1/2,-y,z+1/2'
    '-x,-y,-z'
    '-x+1/2,y+1/2,z+1/2'
    'x,-y+1/2,z'
    'x+1/2,y,-z+1/2'
_cell_length_a     10.37894(15)
_cell_length_b     6.03945(9)
_cell_length_c     4.72107(7)
_cell_angle_alpha     90.00000
_cell_angle_beta     90.00000
_cell_angle_gamma     90.00000
_cell_volume     295.931(7)
_cell_formula_units_Z     ?
_cell_measurement_temperature     ?
_cell_special_details
; ?
;
_pd_char_colour     ?
_pd_char_particle_morphology     ?
_exptl_absorpt_coefficient_mu     ?
_exptl_absorpt_correction_type     ?
_exptl_absorpt_process_details     ?
_exptl_absorpt_correction_T_min     ?
_exptl_absorpt_correction_T_max     ?
_exptl_special_details
; ?
;
_diffrn_ambient_temperature     ?
_diffrn_radiation_type     ?
_diffrn_radiation_wavelength     0.94449
_diffrn_radiation_monochromator     ?
_diffrn_measurement_device_type     ?
_diffrn_measurement_method     ?
_diffrn_detector_area_resol_mean     ?
_pd_instr_location
; ?
;
_pd_meas_2theta_range_min     3.64155
_pd_meas_2theta_range_max     43.97871
_pd_meas_2theta_range_inc     0.037384
_pd_meas_number_of_points     1081
_pd_meas_scan_method     ?
_pd_meas_special_details
;  ?
;
_refine_special_details
; ?
;
_refine_ls_number_reflns     158
_refine_ls_number_parameters     44
_refine_ls_number_restraints     0
loop_
    _atom_type_symbol
    _atom_type_scat_dispersion_real
    _atom_type_scat_dispersion_imag
    _atom_type_scat_source
    li 0.00032 0.00013
;International Tables for Crystallography Vol. C (1991)
 Tables 6.1.1.4 and_6.1.1.5
;
    fe 0.28930 1.55416
;International Tables for Crystallography Vol. C (1991)
 Tables 6.1.1.4 and 6.1.1.5
;
    p 0.17633 0.19009
;International Tables for Crystallography Vol. C (1991)
 Tables 6.1.1.4 and 6.1.1.5
;
    o 0.02351 0.01325
;International Tables for Crystallography Vol. C (1991)
 Tables 6.1.1.4 and 6.1.1.5
;
    mn 0.29500 0.72900
;International Tables for Crystallography Vol. C (1991)
 Tables 6.1.1.4 and 6.1.1.5
;
_computing_data_collection     ?
_computing_structure_solution     ?
_computing_structure_refinement     FULLPROF
_computing_molecular_graphics     ?
_computing_publication_material     ?
_pd_calibration_special_details
; ?
;
_pd_prep_cool_rate     ?
_pd_prep_pressure     ?
_pd_prep_temperature     ?
_pd_proc_2theta_range_min     3.6277
_pd_proc_2theta_range_max     43.9649
_pd_proc_2theta_range_inc     0.037384
_pd_proc_info_data_reduction     ?
_pd_proc_info_excluded_regions     ?
_pd_proc_ls_background_function     ?
_pd_proc_ls_pref_orient_corr
; ?
;
_pd_proc_ls_prof_R_factor     0.3115
_pd_proc_ls_prof_wR_factor     0.3726
_pd_proc_ls_prof_wR_expected     0.0044
_pd_proc_ls_profile_function     ?
_pd_proc_ls_special_details
; ?
;
_pd_proc_wavelength     0.944490
_pd_spec_mount_mode     ?
_pd_spec_mounting
; ?
;
_pd_spec_shape     ?
_pd_spec_size_axial     ?
_pd_spec_size_equat     ?
_pd_spec_size_thick     ?
loop_
    _atom_site_type_symbol
    _atom_site_label
    _atom_site_fract_x
    _atom_site_fract_y
    _atom_site_fract_z
    _atom_site_U_iso_or_equiv
    _atom_site_adp_type
    _atom_site_occupancy
    Li Li1 0.00000 0.00000 0.00000 0.00000 Uiso 1.0000(17)
    Fe Fe1 0.28314(11) 0.25000 0.9735(4) 0.00000 Uiso 0.4981(17)
    Li Li2 0.28314(11) 0.25000 0.9735(4) 0.00000 Uiso 0.0038(17)
    P 0.0000 0.0968(3) 0.25000 0.4151(5) 0.00000 Uiso 1.00385
    O O1 0.0947(6) 0.25000 0.7343(10) 0.00000 Uiso 1.00385
    O O2 0.4551(7) 0.25000 0.2079(9) 0.00000 Uiso 1.00385
    O O3 0.1660(5) 0.0496(8) 0.2829(6) 0.00000 Uiso 1.00385
    Fe Fe 0.00000 0.00000 0.00000 0.00000 Uiso 0.0038(17)
    Mn Mn 0.28314(11) 0.25000 0.9735(4) 0.00000 Uiso 0.50193
_geom_special_details     ?
loop_
    _geom_bond_atom_site_label_1
    _geom_bond_atom_site_label_2
    _geom_bond_site_symmetry_1
    _geom_bond_site_symmetry_2
    _geom_bond_distance
    _geom_bond_publ_flag
    ? ? ? ? ? ?
loop_
    _geom_contact_atom_site_label_1
    _geom_contact_atom_site_label_2
    _geom_contact_distance
    _geom_contact_site_symmetry_1
    _geom_contact_site_symmetry_2
    _geom_contact_publ_flag
    ? ? ? ? ? ?
loop_
    _geom_angle_atom_site_label_1
    _geom_angle_atom_site_label_2
    _geom_angle_atom_site_label_3
    _geom_angle_site_symmetry_1
    _geom_angle_site_symmetry_2
    _geom_angle_site_symmetry_3
    _geom_angle
    _geom_angle_publ_flag
    ? ? ? ? ? ? ? ?
loop_
    _geom_torsion_atom_site_label_1
    _geom_torsion_atom_site_label_2
    _geom_torsion_atom_site_label_3
    _geom_torsion_atom_site_label_4
    _geom_torsion_site_symmetry_1
    _geom_torsion_site_symmetry_2
    _geom_torsion_site_symmetry_3
    _geom_torsion_site_symmetry_4
    _geom_torsion
    _geom_torsion_publ_flag
    ? ? ? ? ? ? ? ? ? ?
loop_
    _geom_hbond_atom_site_label_D
    _geom_hbond_atom_site_label_H
    _geom_hbond_atom_site_label_A
    _geom_hbond_site_symmetry_D
    _geom_hbond_site_symmetry_H
    _geom_hbond_site_symmetry_A
    _geom_hbond_distance_DH
    _geom_hbond_distance_HA
    _geom_hbond_distance_DA
    _geom_hbond_angle_DHA
    _geom_hbond_publ_flag
    ? ? ? ? ? ? ? ? ? ? ?
data_LiFe050Mn050PO4345
_pd_block_diffractogram_id     LiFe050Mn050PO4345
_chemical_name_systematic
; ?
;
_chemical_name_common     ?
_chemical_formula_moiety     ?
_chemical_formula_sum     ?
_chemical_formula_structural     ?
_chemical_formula_analytical     ?
_chemical_formula_iupac     ?
_chemical_formula_weight     ?
_chemical_melting_point     ?
_symmetry_cell_setting     Orthorhombic
_symmetry_space_group_name_H-M     'P n m a'
_symmetry_space_group_name_Hall     '-P 2ac 2n'
loop_
    _symmetry_equiv_pos_as_xyz
    'x,y,z'
    'x+1/2,-y+1/2,-z+1/2'
    '-x,y+1/2,-z'
    '-x+1/2,-y,z+1/2'
    '-x,-y,-z'
    '-x+1/2,y+1/2,z+1/2'
    'x,-y+1/2,z'
    'x+1/2,y,-z+1/2'
_cell_length_a     10.4072(3)
_cell_length_b     6.06188(14)
_cell_length_c     4.73357(13)
_cell_angle_alpha     90.00000
_cell_angle_beta     90.00000
_cell_angle_gamma     90.00000
_cell_volume     298.629(14)
_cell_formula_units_Z     ?
_cell_measurement_temperature     ?
_cell_special_details
; ?
;
_pd_char_colour     ?
_pd_char_particle_morphology     ?
_exptl_absorpt_coefficient_mu     ?
_exptl_absorpt_correction_type     ?
_exptl_absorpt_process_details     ?
_exptl_absorpt_correction_T_min     ?
_exptl_absorpt_correction_T_max     ?
_exptl_special_details
; ?
;
_diffrn_ambient_temperature     ?
_diffrn_radiation_type     ?
_diffrn_radiation_wavelength     0.94449
_diffrn_radiation_monochromator     ?
_diffrn_measurement_device_type     ?
_diffrn_measurement_method     ?
_diffrn_detector_area_resol_mean     ?
_pd_instr_location
; ?
;
_pd_meas_2theta_range_min     3.45480
_pd_meas_2theta_range_max     43.97871
_pd_meas_2theta_range_inc     0.037384
_pd_meas_number_of_points     1086
_pd_meas_scan_method     ?
_pd_meas_special_details
;  ?
;
_refine_special_details
; ?
;
_refine_ls_number_reflns     175
_refine_ls_number_parameters     48
_refine_ls_number_restraints     0
loop_
    _atom_type_symbol
    _atom_type_scat_dispersion_real
    _atom_type_scat_dispersion_imag
    _atom_type_scat_source
    li 0.00032 0.00013
;International Tables for Crystallography Vol. C (1991)
 Tables 6.1.1.4 and 6.1.1.5
;
    fe 0.28930 1.55416
;International Tables for Crystallography Vol. C (1991)
 Tables 6.1.1.4 and 6.1.1.5
;
    mn 0.29500 0.72900
;International Tables for Crystallography Vol. C (1991)
 Tables 6.1.1.4 and 6.1.1.5
;
    p 0.17633 0.19009
;International Tables for Crystallography Vol. C (1991)
 Tables 6.1.1.4 and 6.1.1.5
;
    o 0.02351 0.01325
;International Tables for Crystallography Vol. C (1991)
 Tables 6.1.1.4 and 6.1.1.5
;
_computing_data_collection     ?
_computing_structure_solution     ?
_computing_structure_refinement     FULLPROF
_computing_molecular_graphics     ?
_computing_publication_material     ?
_pd_calibration_special_details
; ?
;
_pd_prep_cool_rate     ?
_pd_prep_pressure     ?
_pd_prep_temperature     ?
_pd_proc_2theta_range_min     3.4416
_pd_proc_2theta_range_max     43.9655
_pd_proc_2theta_range_inc     0.037384
_pd_proc_info_data_reduction     ?
_pd_proc_info_excluded_regions     ?
_pd_proc_ls_background_function     ?
_pd_proc_ls_pref_orient_corr
; ?
;
_pd_proc_ls_prof_R_factor     0.4143
_pd_proc_ls_prof_wR_factor     0.6095
_pd_proc_ls_prof_wR_expected     0.3334
_pd_proc_ls_profile_function     ?
_pd_proc_ls_special_details
; ?
;
_pd_proc_wavelength     0.944490
_pd_spec_mount_mode     ?
_pd_spec_mounting
; ?
;
_pd_spec_shape     ?
_pd_spec_size_axial     ?
_pd_spec_size_equat     ?
_pd_spec_size_thick     ?
loop_
    _atom_site_type_symbol
    _atom_site_label
    _atom_site_fract_x
    _atom_site_fract_y
    _atom_site_fract_z
    _atom_site_U_iso_or_equiv
    _atom_site_adp_type
    _atom_site_occupancy
    Li Li1 0.00000 0.00000 0.00000 0.00000 Uiso 0.999(3)
    Fe Fe1 0.2828(2) 0.25000 0.9705(7) 0.00000 Uiso 0.497(3)
    mn Mn1 0.2828(2) 0.25000 0.9705(7) 0.00000 Uiso 0.50175
    P P1 0.0952(6) 0.25000 0.4169(11) 0.00000 Uiso 1.00349
    O O1 0.0939(13) 0.25000 0.731(2) 0.00000 Uiso 1.00349
    O O2 0.4495(15) 0.25000 0.2062(14) 0.00000 Uiso 1.00349
    O O3 0.1604(8) 0.0537(14) 0.2778(12) 0.00000 Uiso 1.00349
    Fe Fe2 0.00000 0.00000 0.00000 0.00000 Uiso 0.004(3)
    Li Li2 0.2828(2) 0.25000 0.9705(7) 0.00000 Uiso 0.004(3)
_geom_special_details     ?
loop_
    _geom_bond_atom_site_label_1
    _geom_bond_atom_site_label_2
    _geom_bond_site_symmetry_1
    _geom_bond_site_symmetry_2
    _geom_bond_distance
    _geom_bond_publ_flag
    ? ? ? ? ? ?
loop_
    _geom_contact_atom_site_label_1
    _geom_contact_atom_site_label_2
    _geom_contact_distance
    _geom_contact_site_symmetry_1
    _geom_contact_site_symmetry_2
    _geom_contact_publ_flag
    ? ? ? ? ? ?
loop_
    _geom_angle_atom_site_label_1
    _geom_angle_atom_site_label_2
    _geom_angle_atom_site_label_3
    _geom_angle_site_symmetry_1
    _geom_angle_site_symmetry_2
    _geom_angle_site_symmetry_3
    _geom_angle
    _geom_angle_publ_flag
    ? ? ? ? ? ? ? ?
loop_
    _geom_torsion_atom_site_label_1
    _geom_torsion_atom_site_label_2
    _geom_torsion_atom_site_label_3
    _geom_torsion_atom_site_label_4
    _geom_torsion_site_symmetry_1
    _geom_torsion_site_symmetry_2
    _geom_torsion_site_symmetry_3
    _geom_torsion_site_symmetry_4
    _geom_torsion
    _geom_torsion_publ_flag
    ? ? ? ? ? ? ? ? ? ?
loop_
    _geom_hbond_atom_site_label_D
    _geom_hbond_atom_site_label_H
    _geom_hbond_atom_site_label_A
    _geom_hbond_site_symmetry_D
    _geom_hbond_site_symmetry_H
    _geom_hbond_site_symmetry_A
    _geom_hbond_distance_DH
    _geom_hbond_distance_HA
    _geom_hbond_distance_DA
    _geom_hbond_angle_DHA
    _geom_hbond_publ_flag
    ? ? ? ? ? ? ? ? ? ? ?
data_LiFe025Mn075PO4345
_pd_block_diffractogram_id     LiFe025Mn075PO4345
_chemical_name_systematic
; ?
;
_chemical_name_common     ?
_chemical_formula_moiety     ?
_chemical_formula_sum     ?
_chemical_formula_structural     ?
_chemical_formula_analytical     ?
_chemical_formula_iupac     ?
_chemical_formula_weight     ?
_chemical_melting_point     ?
_symmetry_cell_setting     Orthorhombic
_symmetry_space_group_name_H-M     'P n m a'
_symmetry_space_group_name_Hall     '-P 2ac 2n'
loop_
    _symmetry_equiv_pos_as_xyz
    'x,y,z'
    'x+1/2,-y+1/2,-z+1/2'
    '-x,y+1/2,-z'
    '-x+1/2,-y,z+1/2'
    '-x,-y,-z'
    '-x+1/2,y+1/2,z+1/2'
    'x,-y+1/2,z'
    'x+1/2,y,-z+1/2'
_cell_length_a     10.4303(3)
_cell_length_b     6.08084(19)
_cell_length_c     4.74531(18)
_cell_angle_alpha     90.00000
_cell_angle_beta     90.00000
_cell_angle_gamma     90.00000
_cell_volume     300.971(18)
_cell_formula_units_Z     ?
_cell_measurement_temperature     ?
_cell_special_details
; ?
;
_pd_char_colour     ?
_pd_char_particle_morphology     ?
_exptl_absorpt_coefficient_mu     ?
_exptl_absorpt_correction_type     ?
_exptl_absorpt_process_details     ?
_exptl_absorpt_correction_T_min     ?
_exptl_absorpt_correction_T_max     ?
_exptl_special_details
; ?
;
_diffrn_ambient_temperature     ?
_diffrn_radiation_type     ?
_diffrn_radiation_wavelength     0.94449
_diffrn_radiation_monochromator     ?
_diffrn_measurement_device_type     ?
_diffrn_measurement_method     ?
_diffrn_detector_area_resol_mean     ?
_pd_instr_location
; ?
;
_pd_meas_2theta_range_min     3.45480
_pd_meas_2theta_range_max     43.97871
_pd_meas_2theta_range_inc     0.037384
_pd_meas_number_of_points     1086
_pd_meas_scan_method     ?
_pd_meas_special_details
;  ?
;
_refine_special_details
; ?
;
_refine_ls_number_reflns     167
_refine_ls_number_parameters     46
_refine_ls_number_restraints     0
loop_
    _atom_type_symbol
    _atom_type_scat_dispersion_real
    _atom_type_scat_dispersion_imag
    _atom_type_scat_source
    li 0.00032 0.00013
;International Tables for Crystallography Vol. C (1991)
 Tables 6.1.1.4 and_6.1.1.5
;
    fe 0.28930 1.55416
;International Tables for Crystallography Vol. C (1991)
 Tables 6.1.1.4 and 6.1.1.5
;
    mn 0.29500 0.72900
;International Tables for Crystallography Vol. C (1991)
 Tables 6.1.1.4 and 6.1.1.5
;
    p 0.17633 0.19009
;International Tables for Crystallography Vol. C (1991)
 Tables 6.1.1.4 and 6.1.1.5
;
    o 0.02351 0.01325
;International Tables for Crystallography Vol. C (1991)
 Tables 6.1.1.4 and 6.1.1.5
;
_computing_data_collection     ?
_computing_structure_solution     ?
_computing_structure_refinement     FULLPROF
_computing_molecular_graphics     ?
_computing_publication_material     ?
_pd_calibration_special_details
; ?
;
_pd_prep_cool_rate     ?
_pd_prep_pressure     ?
_pd_prep_temperature     ?
_pd_proc_2theta_range_min     3.4436
_pd_proc_2theta_range_max     43.9675
_pd_proc_2theta_range_inc     0.037384
_pd_proc_info_data_reduction     ?
_pd_proc_info_excluded_regions     ?
_pd_proc_ls_background_function     ?
_pd_proc_ls_pref_orient_corr
; ?
;
_pd_proc_ls_prof_R_factor     0.3631
_pd_proc_ls_prof_wR_factor     0.4891
_pd_proc_ls_prof_wR_expected     0.3526
_pd_proc_ls_profile_function     ?
_pd_proc_ls_special_details
; ?
;
_pd_proc_wavelength     0.944490
_pd_spec_mount_mode     ?
_pd_spec_mounting
; ?
;
_pd_spec_shape     ?
_pd_spec_size_axial     ?
_pd_spec_size_equat     ?
_pd_spec_size_thick     ?
loop_
    _atom_site_type_symbol
    _atom_site_label
    _atom_site_fract_x
    _atom_site_fract_y
    _atom_site_fract_z
    _atom_site_U_iso_or_equiv
    _atom_site_adp_type
    _atom_site_occupancy
    Li Li1 0.00000 0.00000 0.00000 0.00000 Uiso 1.000(2)
    Fe Fe1 0.28274(17) 0.25000 0.9712(6) 0.00000 Uiso 0.244(2)
    mn Mn1 0.28274(17) 0.25000 0.9712(6) 0.00000 Uiso 0.75623
    P P1 0.0944(5) 0.25000 0.4155(10) 0.00000 Uiso 1.00831
    O O1 0.0988(11) 0.25000 0.7297(18) 0.00000 Uiso 1.00831
    O O2 0.4542(12) 0.25000 0.2048(12) 0.00000 Uiso 1.00831
    O O3 0.1600(7) 0.0515(12) 0.2797(10) 0.00000 Uiso 1.00831
    Fe Fe2 0.00000 0.00000 0.00000 0.00000 Uiso 0.008(2)
    Li Li2 0.28274(17) 0.25000 0.9712(6) 0.00000 Uiso 0.008(2)
_geom_special_details     ?
loop_
    _geom_bond_atom_site_label_1
    _geom_bond_atom_site_label_2
    _geom_bond_site_symmetry_1
    _geom_bond_site_symmetry_2
    _geom_bond_distance
    _geom_bond_publ_flag
    ? ? ? ? ? ?
loop_
    _geom_contact_atom_site_label_1
    _geom_contact_atom_site_label_2
    _geom_contact_distance
    _geom_contact_site_symmetry_1
    _geom_contact_site_symmetry_2
    _geom_contact_publ_flag
    ? ? ? ? ? ?
loop_
    _geom_angle_atom_site_label_1
    _geom_angle_atom_site_label_2
    _geom_angle_atom_site_label_3
    _geom_angle_site_symmetry_1
    _geom_angle_site_symmetry_2
    _geom_angle_site_symmetry_3
    _geom_angle
    _geom_angle_publ_flag
    ? ? ? ? ? ? ? ?
loop_
    _geom_torsion_atom_site_label_1
    _geom_torsion_atom_site_label_2
    _geom_torsion_atom_site_label_3
    _geom_torsion_atom_site_label_4
    _geom_torsion_site_symmetry_1
    _geom_torsion_site_symmetry_2
    _geom_torsion_site_symmetry_3
    _geom_torsion_site_symmetry_4
    _geom_torsion
    _geom_torsion_publ_flag
    ? ? ? ? ? ? ? ? ? ?
loop_
    _geom_hbond_atom_site_label_D
    _geom_hbond_atom_site_label_H
    _geom_hbond_atom_site_label_A
    _geom_hbond_site_symmetry_D
    _geom_hbond_site_symmetry_H
    _geom_hbond_site_symmetry_A
    _geom_hbond_distance_DH
    _geom_hbond_distance_HA
    _geom_hbond_distance_DA
    _geom_hbond_angle_DHA
    _geom_hbond_publ_flag
    ? ? ? ? ? ? ? ? ? ? ?

