##############################################################################
#                                                                            #
# This CIF contains the data in a paper accepted for publication in the      #
# Journal of Synchrotron Radiation. It conforms to the requirements of       #
# Notes for Authors for the Journal of Synchrotron Radiation, and has been   #
# peer reviewed under the auspices of the IUCr Commission on Journals.       #
#                                                                            #
# Full details of the Crystallographic Information File format               #
# are given in the paper "The Crystallographic Information File (CIF):       #
# a New Standard Archive File for Crystallography" by S. R. Hall, F. H.      #
# Allen and I. D. Brown [Acta Cryst. (1991), A47, 655-685].                  #
#                                                                            #
# The current version of the core CIF dictionary is obtainable from          #
# ftp://ftp.iucr.org/pub/cif_core.dic.                                       #
#                                                                            #
# Software is freely available for graphical display of the structure(s)     #
# in this CIF. For information consult the CIF software page                 #
# http://www.iucr.org/resources/cif/software.                                #
#                                                                            #
# This file may be used for bona fide research purposes within the           #
# scientific community so long as proper attribution is given to the journal # 
# article from which it was obtained.                                        #
#                                                                            #
##############################################################################
data_I
_audit_creation_method     'from EXP file using GSAS2CIF'
_pd_block_id     2005-04-29T12:31|Y2O3OLDPAPER|abio_Furlan_Ferreira|D10B_XPD
_chemical_name_systematic     'yttria oxide'
_chemical_name_common     'yttria oxide'
_chemical_formula_moiety     'Y2 O3'
_chemical_formula_sum     'O3 Y2'
_chemical_formula_structural     'Y2 O3'
_chemical_formula_analytical     'Y2 O3'
_chemical_formula_weight     225.81
_chemical_melting_point     2683
_symmetry_cell_setting     cubic
_symmetry_space_group_name_H-M     'I a -3'
_symmetry_space_group_name_Hall     'I a -3'
loop_
    _symmetry_equiv_pos_site_id
    _symmetry_equiv_pos_as_xyz
    1 +x,+y,+z
    2 +z,+x,+y
    3 +y,+z,+x
    4 +x+1/2,+y,-z+1/2
    5 -z+1/2,+x+1/2,+y
    6 +y,-z+1/2,+x+1/2
    7 -z,+x+1/2,-y+1/2
    8 -y+1/2,-z,+x+1/2
    9 +y+1/2,-z+1/2,-x
    10 -x,+y+1/2,-z+1/2
    11 -z+1/2,-x,+y+1/2
    12 +x+1/2,-y+1/2,-z
    -1 -x,-y,-z
    -2 -z,-x,-y
    -3 -y,-z,-x
    -4 -x+1/2,-y,+z+1/2
    -5 +z+1/2,-x+1/2,-y
    -6 -y,+z+1/2,-x+1/2
    -7 +z,-x+1/2,+y+1/2
    -8 +y+1/2,+z,-x+1/2
    -9 -y+1/2,+z+1/2,+x
    -10 +x,-y+1/2,+z+1/2
    -11 +z+1/2,+x,-y+1/2
    -12 -x+1/2,+y+1/2,+z
    101 +x+1/2,+y+1/2,+z+1/2
    102 +z+1/2,+x+1/2,+y+1/2
    103 +y+1/2,+z+1/2,+x+1/2
    104 +x,+y+1/2,-z
    105 -z,+x,+y+1/2
    106 +y+1/2,-z,+x
    107 -z+1/2,+x,-y
    108 -y,-z+1/2,+x
    109 +y,-z,-x+1/2
    110 -x+1/2,+y,-z
    111 -z,-x+1/2,+y
    112 +x,-y,-z+1/2
    -101 -x+1/2,-y+1/2,-z+1/2
    -102 -z+1/2,-x+1/2,-y+1/2
    -103 -y+1/2,-z+1/2,-x+1/2
    -104 -x,-y+1/2,+z
    -105 +z,-x,-y+1/2
    -106 -y+1/2,+z,-x
    -107 +z+1/2,-x,+y
    -108 +y,+z+1/2,-x
    -109 -y,+z,+x+1/2
    -110 +x+1/2,-y,+z
    -111 +z,+x+1/2,-y
    -112 -x,+y,+z+1/2
_cell_length_a     10.604000(4)
_cell_length_b     10.604000(4)
_cell_length_c     10.604000(4)
_cell_angle_alpha     90.0
_cell_angle_beta     90.0
_cell_angle_gamma     90.0
_cell_volume     1192.3800(10)
_cell_formula_units_Z     16
_cell_measurement_temperature     295
_cell_special_details     ?
_exptl_crystal_colour     white
_exptl_crystal_density_diffrn     5.01
_exptl_crystal_density_meas     ?
_exptl_crystal_density_method     ?
_exptl_crystal_F_000     ?
_pd_char_colour     white
_pd_char_particle_morphology     'powder'
_exptl_absorpt_process_details
;   GSAS Absorption/surface roughness correction: function number 0
 No correction is applied.
;
_exptl_absorpt_correction_T_min     1.00000
_exptl_absorpt_correction_T_max     1.00000
_exptl_special_details
; ?
;
_diffrn_ambient_temperature     295
_diffrn_radiation_type     synchrotron
_diffrn_radiation_wavelength     1.377909
_diffrn_radiation_monochromator     'Si 111'
_diffrn_measurement_device_type     'Huber 4+2 circle diffractometer'
_pd_instr_dist_src/mono     8620
_pd_instr_dist_mono/spec     13340
_pd_instr_dist_src/spec     21960
_pd_instr_dist_spec/anal     580
_pd_instr_dist_anal/detc     40
_pd_instr_dist_spec/detc     620
_pd_instr_location     'Huber diffractometer, D10B-XPD beamline, LNLS (Brazil)'
_pd_meas_2theta_range_min     24.000002
_pd_meas_2theta_range_max     114.0
_pd_meas_2theta_range_inc     0.0025
_pd_meas_number_of_points     36001
_pd_meas_scan_method     'step'
_pd_meas_special_details
;  ?
;
_refine_special_details
;
;
_reflns_number_total     191
_refine_ls_matrix_type     full
_refine_ls_goodness_of_fit_all     0.83
_refine_ls_restrained_S_all     ?
_refine_ls_restrained_S_obs     ?
_refine_ls_number_parameters     16
_refine_ls_number_restraints     0
_refine_ls_number_constraints     ?
_refine_ls_hydrogen_treatment     ?
_refine_ls_weighting_details     ?
_refine_ls_shift/su_max     0.05
_refine_ls_shift/su_mean     0.01
_refine_ls_extinction_method     ?
_refine_ls_extinction_coef     ?
loop_
    _atom_type_symbol
    _atom_type_number_in_cell
    _atom_type_scat_Cromer_Mann_a1
    _atom_type_scat_Cromer_Mann_a2
    _atom_type_scat_Cromer_Mann_a3
    _atom_type_scat_Cromer_Mann_a4
    _atom_type_scat_Cromer_Mann_b1
    _atom_type_scat_Cromer_Mann_b2
    _atom_type_scat_Cromer_Mann_b3
    _atom_type_scat_Cromer_Mann_b4
    _atom_type_scat_Cromer_Mann_c
    _atom_type_scat_dispersion_real
    _atom_type_scat_dispersion_imag
    _atom_type_scat_source
    Y3+ 32.0 17.9268 1.35417 9.15310 11.2145 1.76795 22.6599 -33.108 -0.0132
                                                                         40.2602
                                                                           0.000
                                                                           0.000
                                                      International_Tables_Vol_C
    O2- 48.0 3.76936 15.0797 2.53342 6.30430 1.91579 40.3445 1.55094 0.31291
                                                                         0.22789
                                                                           0.000
                                                                           0.000
                                                      International_Tables_Vol_C
_computing_data_collection     'SPEC (Certified Scientific Software, 1992)'
_computing_data_reduction     'POWF 2.11 (Virginia Tech, 2001-2003)'
_computing_structure_solution     'GSAS (Larson & Von Dreele, 2001)'
_computing_structure_refinement     GSAS
_computing_molecular_graphics     ?
_computing_publication_material     ?
_pd_calibration_special_details     'LaB6 measurement'
_pd_phase_name
            'from D:/Arq/XPD/Comissionamento/Sagital_novo_062004/Y2O3/Y2O3_0220'
_pd_prep_cool_rate     ?
_pd_prep_pressure     ?
_pd_prep_temperature     295
_pd_proc_2theta_range_min     23.999363
_pd_proc_2theta_range_max     113.99936
_pd_proc_2theta_range_inc     0.0025
_pd_calc_method     'Rietveld Refinement'
_pd_proc_info_data_reduction     ?
_pd_proc_info_datetime     2005-04-29T12:31:35
_pd_proc_info_excluded_regions
; ?
;
_pd_proc_ls_background_function
;   GSAS Background function number 1 with  3 terms.
 Shifted Chebyshev function of 1st kind
      1:    1.41018     2:  -3.269290E-02 3:   3.048590E-02
;
_pd_proc_ls_peak_cutoff     0.00100
_pd_proc_ls_prof_R_factor     0.1471
_pd_proc_ls_prof_wR_factor     0.2400
_pd_proc_ls_prof_wR_expected     0.2904
_pd_proc_ls_profile_function
;
 CW Profile function number 3 with  19 terms
 Pseudovoigt profile coefficients as parameterized in
 P. Thompson, D.E. Cox & J.B. Hastings (1987). J. Appl. Cryst.,20,79-83.
 Asymmetry correction of L.W. Finger, D.E. Cox & A. P. Jephcoat (1994).
 J. Appl. Cryst.,27,892-900.
 #1(GU)   =    3.123 #2(GV)   =   -0.728 #3(GW)   =    0.475
 #4(GP)   =    0.000 #5(LX)   =    1.104 #6(LY)   =    0.000
 #7(S/L)  =   0.0005 #8(H/L)  =   0.0005
 #9(trns) =     0.00 #10(shft)=   0.0000
 #11(stec)=     0.00 #12(ptec)=     0.00 #13(sfec)=     0.00
 #14(L11) =    0.000 #15(L22) =    0.000 #16(L33) =    0.000
 #17(L12) =    0.000 #18(L13) =    0.000 #19(L23) =    0.000
 Peak tails are ignored  where the intensity is below 0.0010 times the peak
   Aniso. broadening axis   0.0   0.0   1.0
;
_pd_proc_ls_special_details
;
;
_pd_proc_number_of_points     36001
_pd_spec_mount_mode     'reflection'
_pd_spec_mounting     'stainless steell sample holder'
_pd_spec_shape     'flat_sheet'
_pd_spec_size_axial     10
_pd_spec_size_equat     10
_pd_spec_size_thick     1
loop_
    _atom_site_type_symbol
    Y1
    Y2
    O1
loop_
    _atom_site_label
    Y3+
    Y3+
    O2-
loop_
    _atom_site_fract_x
    -0.03235(4)
    0.25
    0.3905(3)
loop_
    _atom_site_fract_y
    0.0
    0.25
    0.1515(3)
loop_
    _atom_site_fract_z
    0.25
    0.25
    0.3806(3)
loop_
    _atom_site_U_iso_or_equiv
    0.00058(10)
    0.00058(10)
    0.00058(10)
loop_
    _atom_site_thermal_displace_type
    Uovl
    Uovl
    Uovl
loop_
    _atom_site_occupancy
    1.0
    1.0
    1.0
loop_
    _atom_site_symmetry_multiplicity
    24
    8
    48
_geom_special_details     ?
loop_
    _geom_bond_atom_site_label_1
    _geom_bond_atom_site_label_2
    _geom_bond_site_symmetry_1
    _geom_bond_site_symmetry_2
    _geom_bond_distance
    _geom_bond_publ_flag
    Y1 Y1 . 6_555 3.5316(2)   N
    Y1 Y1 . -2_555 3.5316(2)   N
    Y1 Y1 . -3_555 3.5316(2)   N
    Y1 Y1 . -11_455 3.5316(2)   N
    Y1 Y2 . 1_555 3.9990(3)   N
    Y1 Y2 . 4_455 3.5149(3)   N
    Y1 Y2 . 5_545 3.9990(3)   N
    Y1 Y2 . 7_545 3.5149(3)   N
    Y1 O1 . 4_455 2.273(3)   N
    Y1 O1 . 5_545 2.242(3)   N
    Y1 O1 . -6_545 2.328(3)   N
    Y1 O1 . 108_555 2.328(3)   N
    Y1 O1 . -102_444 2.242(3)   N
    Y1 O1 . -110_344 2.273(3)   N
    Y2 Y1 . 1_555 3.9990(3)   N
    Y2 Y1 . 2_555 3.9990(3)   N
    Y2 Y1 . 3_555 3.9990(3)   N
    Y2 Y1 . 4_555 3.5149(3)   N
    Y2 Y1 . 5_555 3.5149(3)   N
    Y2 Y1 . 6_555 3.5149(3)   N
    Y2 Y1 . 9_555 3.5149(3)   N
    Y2 Y1 . 10_555 3.5149(3)   N
    Y2 Y1 . 11_555 3.5149(3)   N
    Y2 Y1 . -7_555 3.9990(3)   N
    Y2 Y1 . -8_555 3.9990(3)   N
    Y2 Y1 . -12_555 3.9990(3)   N
    Y2 O1 . 1_555 2.287(4) N
    Y2 O1 . 2_555 2.287(4) N
    Y2 O1 . 3_555 2.287(4) N
    Y2 O1 . -101_444 2.287(4) N
    Y2 O1 . -102_444 2.287(4) N
    Y2 O1 . -103_444 2.287(4) N
    O1 Y1 . 4_555 2.273(3)   N
    O1 Y1 . 11_555 2.328(3)   N
    O1 Y1 . -8_555 2.242(3)   N
    O1 Y2 . 1_555 2.287(4) N
loop_
    _geom_angle_atom_site_label_1
    _geom_angle_atom_site_label_2
    _geom_angle_atom_site_label_3
    _geom_angle_site_symmetry_1
    _geom_angle_site_symmetry_2
    _geom_angle_site_symmetry_3
    _geom_angle
    _geom_angle_publ_flag
    Y1 Y1 Y1 6_555 . -2_555 118.759(3)   N
    Y1 Y1 Y1 6_555 . -3_555 168.850(13) N
    Y1 Y1 Y1 6_555 . -11_455 69.258(11) N
    Y1 Y1 Y2 6_555 . 4_455 59.8427(4) N
    Y1 Y1 Y2 6_555 . 7_545 129.047(11) N
    Y1 Y1 O1 6_555 . 4_455 84.42(9) N
    Y1 Y1 O1 6_555 . 5_545 128.56(7) N
    Y1 Y1 O1 6_555 . -6_545 151.56(7) N
    Y1 Y1 O1 6_555 . 108_443 39.30(7) N
    Y1 Y1 O1 6_555 . -102_544 40.29(7) N
    Y1 Y1 O1 6_555 . -110_444 99.63(9) N
    Y1 Y1 Y1 -2_555 . -3_555 69.258(11) N
    Y1 Y1 Y1 -2_555 . -11_455 98.386(11) N
    Y1 Y1 Y2 -2_555 . 4_455 59.8427(4) N
    Y1 Y1 Y2 -2_555 . 7_545 69.155(11) N
    Y1 Y1 O1 -2_555 . 4_455 40.44(7) N
    Y1 Y1 O1 -2_555 . 5_545 99.76(9) N
    Y1 Y1 O1 -2_555 . -6_545 38.53(8) N
    Y1 Y1 O1 -2_555 . 108_443 94.19(9) N
    Y1 Y1 O1 -2_555 . -102_544 140.21(9) N
    Y1 Y1 O1 -2_555 . -110_444 106.91(10) N
    Y1 Y1 Y1 -3_555 . -11_455 118.759(3)   N
    Y1 Y1 Y2 -3_555 . 4_455 129.047(11) N
    Y1 Y1 Y2 -3_555 . 7_545 59.8427(4) N
    Y1 Y1 O1 -3_555 . 4_455 99.63(9) N
    Y1 Y1 O1 -3_555 . 5_545 40.29(7) N
    Y1 Y1 O1 -3_555 . -6_545 39.30(7) N
    Y1 Y1 O1 -3_555 . 108_443 151.56(7) N
    Y1 Y1 O1 -3_555 . -102_544 128.56(7) N
    Y1 Y1 O1 -3_555 . -110_444 84.42(9) N
    Y1 Y1 Y2 -11_446 . 4_455 69.155(11) N
    Y1 Y1 Y2 -11_446 . 7_545 59.8427(4) N
    Y1 Y1 O1 -11_545 . 4_455 106.91(10) N
    Y1 Y1 O1 -11_545 . 5_545 140.21(9) N
    Y1 Y1 O1 -11_545 . -6_545 94.19(9) N
    Y1 Y1 O1 -11_545 . 108_443 38.53(8) N
    Y1 Y1 O1 -11_545 . -102_544 99.76(9) N
    Y1 Y1 O1 -11_545 . -110_444 40.44(7) N
    Y2 Y1 Y2 4_455 . 7_545 97.915(10) N
    Y2 Y1 O1 4_455 . 4_455 39.72(10) N
    Y2 Y1 O1 4_455 . 5_545 149.50(10) N
    Y2 Y1 O1 4_455 . -6_545 93.09(7) N
    Y2 Y1 O1 4_455 . 108_443 39.96(10) N
    Y2 Y1 O1 4_455 . -102_544 94.63(7) N
    Y2 Y1 O1 4_455 . -110_444 107.26(6) N
    Y2 Y1 O1 7_545 . 4_455 107.26(6) N
    Y2 Y1 O1 7_545 . 5_545 94.63(7) N
    Y2 Y1 O1 7_545 . -6_545 39.96(10) N
    Y2 Y1 O1 7_545 . 108_443 93.09(7) N
    Y2 Y1 O1 7_545 . -102_544 149.50(10) N
    Y2 Y1 O1 7_545 . -110_444 39.72(10) N
    O1 Y1 O1 4_455 . 5_545 109.89(19) N
    O1 Y1 O1 4_455 . -6_545 78.41(13) N
    O1 Y1 O1 4_455 . 108_443 79.1(2)   N
    O1 Y1 O1 4_455 . -102_544 100.15(10) N
    O1 Y1 O1 4_455 . -110_444 137.82(15) N
    O1 Y1 O1 5_545 . -6_545 79.02(11) N
    O1 Y1 O1 5_545 . 108_443 165.74(7) N
    O1 Y1 O1 5_545 . -102_544 88.29(15) N
    O1 Y1 O1 5_545 . -110_444 100.15(10) N
    O1 Y1 O1 -6_545 . 108_443 114.27(15) N
    O1 Y1 O1 -6_545 . -102_544 165.74(7) N
    O1 Y1 O1 -6_545 . -110_444 79.1(2)   N
    O1 Y1 O1 108_443 . -102_544 79.02(11) N
    O1 Y1 O1 108_443 . -110_444 78.41(13) N
    O1 Y1 O1 -102_544 . -110_444 109.89(19) N
    Y1 Y2 Y1 4_555 . 5_555 119.6853(8) N
    Y1 Y2 Y1 4_555 . 6_555 119.6853(8) N
    Y1 Y2 Y1 4_555 . 9_555 60.3147(8) N
    Y1 Y2 Y1 4_555 . 10_555 180.0 N
    Y1 Y2 Y1 4_555 . 11_555 60.3147(8) N
    Y1 Y2 O1 4_555 . 1_555 39.43(7) N
    Y1 Y2 O1 4_555 . 2_555 95.38(7) N
    Y1 Y2 O1 4_555 . 3_555 139.18(6) N
    Y1 Y2 O1 4_555 . -101_544 140.57(7) N
    Y1 Y2 O1 4_555 . -102_544 84.62(7) N
    Y1 Y2 O1 4_555 . -103_544 40.82(6) N
    Y1 Y2 Y1 5_555 . 6_555 119.6853(8) N
    Y1 Y2 Y1 5_555 . 9_555 60.3147(8) N
    Y1 Y2 Y1 5_555 . 10_555 60.3147(8) N
    Y1 Y2 Y1 5_555 . 11_555 180.0 N
    Y1 Y2 O1 5_555 . 1_555 139.18(6) N
    Y1 Y2 O1 5_555 . 2_555 39.43(7) N
    Y1 Y2 O1 5_555 . 3_555 95.38(7) N
    Y1 Y2 O1 5_555 . -101_544 40.82(6) N
    Y1 Y2 O1 5_555 . -102_544 140.57(7) N
    Y1 Y2 O1 5_555 . -103_544 84.62(7) N
    Y1 Y2 Y1 6_555 . 9_555 180.0 N
    Y1 Y2 Y1 6_555 . 10_555 60.3147(8) N
    Y1 Y2 Y1 6_555 . 11_555 60.3147(8) N
    Y1 Y2 O1 6_555 . 1_555 95.38(7) N
    Y1 Y2 O1 6_555 . 2_555 139.18(6) N
    Y1 Y2 O1 6_555 . 3_555 39.43(7) N
    Y1 Y2 O1 6_555 . -101_544 84.62(7) N
    Y1 Y2 O1 6_555 . -102_544 40.82(6) N
    Y1 Y2 O1 6_555 . -103_544 140.57(7) N
    Y1 Y2 Y1 9_555 . 10_555 119.6853(8) N
    Y1 Y2 Y1 9_555 . 11_555 119.6853(8) N
    Y1 Y2 O1 9_555 . 1_555 84.62(7) N
    Y1 Y2 O1 9_555 . 2_555 40.82(6) N
    Y1 Y2 O1 9_555 . 3_555 140.57(7) N
    Y1 Y2 O1 9_555 . -101_544 95.38(7) N
    Y1 Y2 O1 9_555 . -102_544 139.18(6) N
    Y1 Y2 O1 9_555 . -103_544 39.43(7) N
    Y1 Y2 Y1 10_555 . 11_555 119.6853(8) N
    Y1 Y2 O1 10_555 . 1_555 140.57(7) N
    Y1 Y2 O1 10_555 . 2_555 84.62(7) N
    Y1 Y2 O1 10_555 . 3_555 40.82(6) N
    Y1 Y2 O1 10_555 . -101_544 39.43(7) N
    Y1 Y2 O1 10_555 . -102_544 95.38(7) N
    Y1 Y2 O1 10_555 . -103_544 139.18(6) N
    Y1 Y2 O1 11_555 . 1_555 40.82(6) N
    Y1 Y2 O1 11_555 . 2_555 140.57(7) N
    Y1 Y2 O1 11_555 . 3_555 84.62(7) N
    Y1 Y2 O1 11_555 . -101_544 139.18(6) N
    Y1 Y2 O1 11_555 . -102_544 39.43(7) N
    Y1 Y2 O1 11_555 . -103_544 95.38(7) N
    O1 Y2 O1 1_555 . 2_555 100.35(8) N
    O1 Y2 O1 1_555 . 3_555 100.35(8) N
    O1 Y2 O1 1_555 . -101_544 180.0 N
    O1 Y2 O1 1_555 . -102_544 79.65(8) N
    O1 Y2 O1 1_555 . -103_544 79.65(8) N
    O1 Y2 O1 2_555 . 3_555 100.35(8) N
    O1 Y2 O1 2_555 . -101_544 79.65(8) N
    O1 Y2 O1 2_555 . -102_544 179.972 N
    O1 Y2 O1 2_555 . -103_544 79.65(8) N
    O1 Y2 O1 3_555 . -101_544 79.65(8) N
    O1 Y2 O1 3_555 . -102_544 79.65(8) N
    O1 Y2 O1 3_555 . -103_544 179.972 N
    O1 Y2 O1 -101_544 . -102_544 100.35(8) N
    O1 Y2 O1 -101_544 . -103_544 100.35(8) N
    O1 Y2 O1 -102_544 . -103_544 100.35(8) N
    Y1 O1 Y1 4_555 . 11_555 100.27(10) N
    Y1 O1 Y1 4_555 . -8_555 125.46(16) N
    Y1 O1 Y2 4_555 . 1_555 100.85(12) N
    Y1 O1 Y1 11_555 . -8_555 101.18(13) N
    Y1 O1 Y2 11_555 . 1_555 99.22(12) N
    Y1 O1 Y2 -8_546 . 1_555 123.99(14) N
data_II
_audit_creation_method     "from EXP file using GSAS2CIF"
_pd_block_id     2005-10-18T16:18|T14KBST|Eduardo_Granado|Overall
_pd_char_colour     black
_refine_special_details
;
;
_refine_ls_restrained_S_all     ?
_refine_ls_restrained_S_obs     ?
_refine_ls_number_constraints     ?
_refine_ls_hydrogen_treatment     ?
_refine_ls_weighting_details     ?
_refine_ls_extinction_method     ?
_refine_ls_extinction_coef     ?
_computing_molecular_graphics     ?
_computing_publication_material     ?
_pd_prep_cool_rate     ?
_pd_prep_pressure     ?
_pd_prep_temperature     ?
_pd_proc_ls_special_details
;
;
data_III
_audit_creation_method     "from EXP file using GSAS2CIF"
_pd_block_id     2005-10-18T16:18|T400KBST|Eduardo_Granado|Overall
_pd_char_colour     black
_refine_special_details
;
;
_refine_ls_restrained_S_all     ?
_refine_ls_restrained_S_obs     ?
_refine_ls_number_constraints     ?
_refine_ls_hydrogen_treatment     ?
_refine_ls_weighting_details     ?
_refine_ls_extinction_method     ?
_refine_ls_extinction_coef     ?
_computing_molecular_graphics     ?
_computing_publication_material     ?
_pd_prep_cool_rate     ?
_pd_prep_pressure     ?
_pd_prep_temperature     ?
_pd_proc_ls_special_details
;
;
data_global
_journal_data_validation_number     ?
_journal_date_recd_electronic     2005-10-19
_journal_date_accepted     2005-11-25
_journal_name_full     'Journal of Synchrotron Radiation'
_journal_year     2006
_journal_volume     13
_journal_issue     1
_journal_page_first     46
_journal_page_last     53
_journal_paper_category     FA
_journal_coeditor_code     ML5212
_publ_contact_author_name     'Eduardo Granado'
_publ_contact_author_address
;Instituto de Fisica "Gleb Wataghin" - UNICAMP
Campinas - SP
CEP: 13083-970
Brazil
;
_publ_contact_author_email     granado@lnls.br
_publ_contact_author_fax     551935121004
_publ_contact_author_phone     551935121042
_publ_section_title
;
;
_publ_section_title_footnote
;
;
loop_
    _publ_author_name
    'Granado, Eduardo'
loop_
    _publ_author_footnote
;
;
loop_
    _publ_author_address
;Instituto de Fisica "Gleb Wataghin" - UNICAMP
Campinas - SP
CEP: 13083-970
Brazil
;
_publ_section_synopsis
;
;
data_T14KBST_overall
loop_
    _pd_block_diffractogram_id
    2005-10-18T16:18|T14KBST_H_01|Eduardo_Granado|XPD
_refine_ls_matrix_type     full
_refine_ls_goodness_of_fit_all     1.38
_refine_ls_number_parameters     24
_refine_ls_number_restraints     0
_refine_ls_shift/su_max     0.02
_refine_ls_shift/su_mean     0.00
_computing_structure_refinement     GSAS
loop_
    _pd_phase_block_id
    2005-10-18T16:18|T14KBST_phase2|Eduardo_Granado||
    2005-10-18T16:18|T14KBST_phase3|Eduardo_Granado||
data_T14KBST_phase_2
loop_
    _pd_block_diffractogram_id
    2005-10-18T16:18|T14KBST_H_01|Eduardo_Granado|XPD
_pd_block_id     2005-10-18T16:18|T14KBST_phase2|Eduardo_Granado||
_chemical_name_systematic     'iron oxide'
_chemical_name_common     'iron oxide'
_chemical_formula_moiety     'Fe3 O4'
_chemical_formula_sum     'Fe3 O4'
_chemical_formula_structural     'Fe3 O4'
_chemical_formula_analytical     'Fe3 O4'
_chemical_formula_weight     231.54
_chemical_melting_point     ?
_symmetry_cell_setting     cubic
_symmetry_space_group_name_H-M     'F d -3 m'
_symmetry_space_group_name_Hall     'F d -3 m'
loop_
    _symmetry_equiv_pos_site_id
    _symmetry_equiv_pos_as_xyz
    1 +x,+y,+z
    2 +z,+x,+y
    3 +y,+z,+x
    4 +x+1/4,+y+1/4,-z
    5 -z,+x+1/4,+y+1/4
    6 +y+1/4,-z,+x+1/4
    7 -z+1/4,+x+1/2,-y+3/4
    8 -y+3/4,-z+1/4,+x+1/2
    9 +y+1/2,-z+1/4,-x+3/4
    10 -x+3/4,+y+1/2,-z+1/4
    11 -z+1/4,-x+3/4,+y+1/2
    12 +x+1/2,-y+3/4,-z+1/4
    13 +y,+x,+z
    14 +z,+y,+x
    15 +x,+z,+y
    16 +y+1/4,+x+1/4,-z
    17 -z,+y+1/4,+x+1/4
    18 +x+1/4,-z,+y+1/4
    19 -z+1/4,+y+1/2,-x+3/4
    20 -x+3/4,-z+1/4,+y+1/2
    21 +x+1/2,-z+1/4,-y+3/4
    22 -y+3/4,+x+1/2,-z+1/4
    23 -z+1/4,-y+3/4,+x+1/2
    24 +y+1/2,-x+3/4,-z+1/4
    -1 -x,-y,-z
    -2 -z,-x,-y
    -3 -y,-z,-x
    -4 -x+3/4,-y+3/4,+z
    -5 +z,-x+3/4,-y+3/4
    -6 -y+3/4,+z,-x+3/4
    -7 +z+3/4,-x+1/2,+y+1/4
    -8 +y+1/4,+z+3/4,-x+1/2
    -9 -y+1/2,+z+3/4,+x+1/4
    -10 +x+1/4,-y+1/2,+z+3/4
    -11 +z+3/4,+x+1/4,-y+1/2
    -12 -x+1/2,+y+1/4,+z+3/4
    -13 -y,-x,-z
    -14 -z,-y,-x
    -15 -x,-z,-y
    -16 -y+3/4,-x+3/4,+z
    -17 +z,-y+3/4,-x+3/4
    -18 -x+3/4,+z,-y+3/4
    -19 +z+3/4,-y+1/2,+x+1/4
    -20 +x+1/4,+z+3/4,-y+1/2
    -21 -x+1/2,+z+3/4,+y+1/4
    -22 +y+1/4,-x+1/2,+z+3/4
    -23 +z+3/4,+y+1/4,-x+1/2
    -24 -y+1/2,+x+1/4,+z+3/4
    101 +x,+y+1/2,+z+1/2
    102 +z,+x+1/2,+y+1/2
    103 +y,+z+1/2,+x+1/2
    104 +x+1/4,+y+3/4,-z+1/2
    105 -z,+x+3/4,+y+3/4
    106 +y+1/4,-z+1/2,+x+3/4
    107 -z+1/4,+x,-y+1/4
    108 -y+3/4,-z+3/4,+x
    109 +y+1/2,-z+3/4,-x+1/4
    110 -x+3/4,+y,-z+3/4
    111 -z+1/4,-x+1/4,+y
    112 +x+1/2,-y+1/4,-z+3/4
    113 +y,+x+1/2,+z+1/2
    114 +z,+y+1/2,+x+1/2
    115 +x,+z+1/2,+y+1/2
    116 +y+1/4,+x+3/4,-z+1/2
    117 -z,+y+3/4,+x+3/4
    118 +x+1/4,-z+1/2,+y+3/4
    119 -z+1/4,+y,-x+1/4
    120 -x+3/4,-z+3/4,+y
    121 +x+1/2,-z+3/4,-y+1/4
    122 -y+3/4,+x,-z+3/4
    123 -z+1/4,-y+1/4,+x
    124 +y+1/2,-x+1/4,-z+3/4
    -101 -x,-y+1/2,-z+1/2
    -102 -z,-x+1/2,-y+1/2
    -103 -y,-z+1/2,-x+1/2
    -104 -x+3/4,-y+1/4,+z+1/2
    -105 +z,-x+1/4,-y+1/4
    -106 -y+3/4,+z+1/2,-x+1/4
    -107 +z+3/4,-x,+y+3/4
    -108 +y+1/4,+z+1/4,-x
    -109 -y+1/2,+z+1/4,+x+3/4
    -110 +x+1/4,-y,+z+1/4
    -111 +z+3/4,+x+3/4,-y
    -112 -x+1/2,+y+3/4,+z+1/4
    -113 -y,-x+1/2,-z+1/2
    -114 -z,-y+1/2,-x+1/2
    -115 -x,-z+1/2,-y+1/2
    -116 -y+3/4,-x+1/4,+z+1/2
    -117 +z,-y+1/4,-x+1/4
    -118 -x+3/4,+z+1/2,-y+1/4
    -119 +z+3/4,-y,+x+3/4
    -120 +x+1/4,+z+1/4,-y
    -121 -x+1/2,+z+1/4,+y+3/4
    -122 +y+1/4,-x,+z+1/4
    -123 +z+3/4,+y+3/4,-x
    -124 -y+1/2,+x+3/4,+z+1/4
    201 +x+1/2,+y,+z+1/2
    202 +z+1/2,+x,+y+1/2
    203 +y+1/2,+z,+x+1/2
    204 +x+3/4,+y+1/4,-z+1/2
    205 -z+1/2,+x+1/4,+y+3/4
    206 +y+3/4,-z,+x+3/4
    207 -z+3/4,+x+1/2,-y+1/4
    208 -y+1/4,-z+1/4,+x
    209 +y,-z+1/4,-x+1/4
    210 -x+1/4,+y+1/2,-z+3/4
    211 -z+3/4,-x+3/4,+y
    212 +x,-y+3/4,-z+3/4
    213 +y+1/2,+x,+z+1/2
    214 +z+1/2,+y,+x+1/2
    215 +x+1/2,+z,+y+1/2
    216 +y+3/4,+x+1/4,-z+1/2
    217 -z+1/2,+y+1/4,+x+3/4
    218 +x+3/4,-z,+y+3/4
    219 -z+3/4,+y+1/2,-x+1/4
    220 -x+1/4,-z+1/4,+y
    221 +x,-z+1/4,-y+1/4
    222 -y+1/4,+x+1/2,-z+3/4
    223 -z+3/4,-y+3/4,+x
    224 +y,-x+3/4,-z+3/4
    -201 -x+1/2,-y,-z+1/2
    -202 -z+1/2,-x,-y+1/2
    -203 -y+1/2,-z,-x+1/2
    -204 -x+1/4,-y+3/4,+z+1/2
    -205 +z+1/2,-x+3/4,-y+1/4
    -206 -y+1/4,+z,-x+1/4
    -207 +z+1/4,-x+1/2,+y+3/4
    -208 +y+3/4,+z+3/4,-x
    -209 -y,+z+3/4,+x+3/4
    -210 +x+3/4,-y+1/2,+z+1/4
    -211 +z+1/4,+x+1/4,-y
    -212 -x,+y+1/4,+z+1/4
    -213 -y+1/2,-x,-z+1/2
    -214 -z+1/2,-y,-x+1/2
    -215 -x+1/2,-z,-y+1/2
    -216 -y+1/4,-x+3/4,+z+1/2
    -217 +z+1/2,-y+3/4,-x+1/4
    -218 -x+1/4,+z,-y+1/4
    -219 +z+1/4,-y+1/2,+x+3/4
    -220 +x+3/4,+z+3/4,-y
    -221 -x,+z+3/4,+y+3/4
    -222 +y+3/4,-x+1/2,+z+1/4
    -223 +z+1/4,+y+1/4,-x
    -224 -y,+x+1/4,+z+1/4
    301 +x+1/2,+y+1/2,+z
    302 +z+1/2,+x+1/2,+y
    303 +y+1/2,+z+1/2,+x
    304 +x+3/4,+y+3/4,-z
    305 -z+1/2,+x+3/4,+y+1/4
    306 +y+3/4,-z+1/2,+x+1/4
    307 -z+3/4,+x,-y+3/4
    308 -y+1/4,-z+3/4,+x+1/2
    309 +y,-z+3/4,-x+3/4
    310 -x+1/4,+y,-z+1/4
    311 -z+3/4,-x+1/4,+y+1/2
    312 +x,-y+1/4,-z+1/4
    313 +y+1/2,+x+1/2,+z
    314 +z+1/2,+y+1/2,+x
    315 +x+1/2,+z+1/2,+y
    316 +y+3/4,+x+3/4,-z
    317 -z+1/2,+y+3/4,+x+1/4
    318 +x+3/4,-z+1/2,+y+1/4
    319 -z+3/4,+y,-x+3/4
    320 -x+1/4,-z+3/4,+y+1/2
    321 +x,-z+3/4,-y+3/4
    322 -y+1/4,+x,-z+1/4
    323 -z+3/4,-y+1/4,+x+1/2
    324 +y,-x+1/4,-z+1/4
    -301 -x+1/2,-y+1/2,-z
    -302 -z+1/2,-x+1/2,-y
    -303 -y+1/2,-z+1/2,-x
    -304 -x+1/4,-y+1/4,+z
    -305 +z+1/2,-x+1/4,-y+3/4
    -306 -y+1/4,+z+1/2,-x+3/4
    -307 +z+1/4,-x,+y+1/4
    -308 +y+3/4,+z+1/4,-x+1/2
    -309 -y,+z+1/4,+x+1/4
    -310 +x+3/4,-y,+z+3/4
    -311 +z+1/4,+x+3/4,-y+1/2
    -312 -x,+y+3/4,+z+3/4
    -313 -y+1/2,-x+1/2,-z
    -314 -z+1/2,-y+1/2,-x
    -315 -x+1/2,-z+1/2,-y
    -316 -y+1/4,-x+1/4,+z
    -317 +z+1/2,-y+1/4,-x+3/4
    -318 -x+1/4,+z+1/2,-y+3/4
    -319 +z+1/4,-y,+x+1/4
    -320 +x+3/4,+z+1/4,-y+1/2
    -321 -x,+z+1/4,+y+1/4
    -322 +y+3/4,-x,+z+3/4
    -323 +z+1/4,+y+3/4,-x+1/2
    -324 -y,+x+3/4,+z+3/4
_cell_length_a     8.3814(5)
_cell_length_b     8.3814
_cell_length_c     8.3814
_cell_angle_alpha     90.0
_cell_angle_beta     90.0
_cell_angle_gamma     90.0
_cell_volume     588.78(10)
_cell_formula_units_Z     8
_cell_measurement_temperature     14
_cell_special_details
; ?
;
_exptl_crystal_density_diffrn     ?
_exptl_crystal_density_meas     ?
_exptl_crystal_density_method     ?
_exptl_crystal_F_000     ?
_pd_char_particle_morphology     'powder'
loop_
    _atom_type_symbol
    _atom_type_number_in_cell
    Fe 24.0
    O 32.0
_computing_structure_solution     'GSAS (Larson & Von Dreele, 2001)'
_pd_phase_name     Fe3O4
loop_
    _atom_site_type_symbol
    _atom_site_label
    _atom_site_fract_x
    _atom_site_fract_y
    _atom_site_fract_z
    _atom_site_U_iso_or_equiv
    _atom_site_thermal_displace_type
    _atom_site_occupancy
    _atom_site_symmetry_multiplicity
    Fe Fe1 0.125 0.125 0.125 -0.001(4) Uiso 1.0 8
    Fe Fe2 0.5 0.5 0.5 -0.001(4) Uiso 1.0 16
    O O 0.2583 0.2583 0.2583 -0.001(4) Uiso 1.0 32
_geom_special_details     ?
loop_
    _geom_bond_atom_site_label_1
    _geom_bond_atom_site_label_2
    _geom_bond_site_symmetry_1
    _geom_bond_site_symmetry_2
    _geom_bond_distance
    _geom_bond_publ_flag
    Fe1 O . 1_555 1.93512(8) N
    Fe1 O . 107_555 1.93512(8) N
    Fe1 O . 111_555 1.93512(8) N
    Fe1 O . -105_544 1.93512(8) N
    Fe2 O . 4_556 2.02818(11) N
    Fe2 O . 5_655 2.02818(11) N
    Fe2 O . 6_565 2.02818(11) N
    Fe2 O . -4_555 2.02818(11) N
    Fe2 O . -5_555 2.02818(11) N
    Fe2 O . -6_555 2.02818(11) N
    O Fe1 . 1_555 1.93512(8) N
    O Fe2 . -4_555 2.02818(11) N
    O Fe2 . -5_555 2.02818(11) N
    O Fe2 . -6_555 2.02818(11) N
loop_
    _geom_angle_atom_site_label_1
    _geom_angle_atom_site_label_2
    _geom_angle_atom_site_label_3
    _geom_angle_site_symmetry_1
    _geom_angle_site_symmetry_2
    _geom_angle_site_symmetry_3
    _geom_angle
    _geom_angle_publ_flag
    O Fe1 O 1_555 . 107_443 109.471(2)   N
    O Fe1 O 1_555 . 111_443 109.471(4) N
    O Fe1 O 1_555 . -105_454 109.471(2)   N
    O Fe1 O 107_443 . 111_443 109.471(2)   N
    O Fe1 O 107_443 . -105_454 109.471(4) N
    O Fe1 O 111_443 . -105_454 109.471(2)   N
    O Fe2 O 4_556 . 5_655 86.0035 N
    O Fe2 O 4_556 . 6_565 86.0035 N
    O Fe2 O 4_556 . -4_564 179.9802 N
    O Fe2 O 4_556 . -5_465 93.9965 N
    O Fe2 O 4_556 . -6_555 93.9965 N
    O Fe2 O 5_655 . 6_565 86.0035 N
    O Fe2 O 5_655 . -4_564 93.9965 N
    O Fe2 O 5_655 . -5_465 179.9802 N
    O Fe2 O 5_655 . -6_555 93.9965 N
    O Fe2 O 6_565 . -4_564 93.9965 N
    O Fe2 O 6_565 . -5_465 93.9965 N
    O Fe2 O 6_565 . -6_555 179.9802 N
    O Fe2 O -4_564 . -5_465 86.0035 N
    O Fe2 O -4_564 . -6_555 86.0035 N
    O Fe2 O -5_465 . -6_555 86.0035 N
    Fe1 O Fe2 1_555 . -4_654 122.484(2)   N
    Fe1 O Fe2 1_555 . -5_555 122.4840(12) N
    Fe1 O Fe2 1_555 . -6_645 122.4840(12) N
    Fe2 O Fe2 -4_654 . -5_555 93.8613 N
    Fe2 O Fe2 -4_654 . -6_645 93.8613 N
    Fe2 O Fe2 -5_555 . -6_645 93.8613 N
data_T14KBST_phase_3
loop_
    _pd_block_diffractogram_id
    2005-10-18T16:18|T14KBST_H_01|Eduardo_Granado|XPD
_pd_block_id     2005-10-18T16:18|T14KBST_phase3|Eduardo_Granado||
_chemical_name_systematic
; ?
;
_chemical_name_common     ?
_chemical_formula_moiety     'Ba2 Fe Re O6'
_chemical_formula_sum     "Ba Fe0.50 O3 Re0.50"
_chemical_formula_structural     'Ba2 Fe Re O6'
_chemical_formula_analytical     'Ba2 Fe Re O6'
_chemical_formula_weight     306.36
_chemical_melting_point     ?
_symmetry_cell_setting     tetragonal
_symmetry_space_group_name_H-M     'I 4/m m m'
_symmetry_space_group_name_Hall     'I 4/m m m'
loop_
    _symmetry_equiv_pos_site_id
    _symmetry_equiv_pos_as_xyz
    1 +x,+y,+z
    2 -y,+x,+z
    3 -x,-y,+z
    4 +y,-x,+z
    5 -x,+y,+z
    6 -y,-x,+z
    7 +x,-y,+z
    8 +y,+x,+z
    -1 -x,-y,-z
    -2 +y,-x,-z
    -3 +x,+y,-z
    -4 -y,+x,-z
    -5 +x,-y,-z
    -6 +y,+x,-z
    -7 -x,+y,-z
    -8 -y,-x,-z
    101 +x+1/2,+y+1/2,+z+1/2
    102 -y+1/2,+x+1/2,+z+1/2
    103 -x+1/2,-y+1/2,+z+1/2
    104 +y+1/2,-x+1/2,+z+1/2
    105 -x+1/2,+y+1/2,+z+1/2
    106 -y+1/2,-x+1/2,+z+1/2
    107 +x+1/2,-y+1/2,+z+1/2
    108 +y+1/2,+x+1/2,+z+1/2
    -101 -x+1/2,-y+1/2,-z+1/2
    -102 +y+1/2,-x+1/2,-z+1/2
    -103 +x+1/2,+y+1/2,-z+1/2
    -104 -y+1/2,+x+1/2,-z+1/2
    -105 +x+1/2,-y+1/2,-z+1/2
    -106 +y+1/2,+x+1/2,-z+1/2
    -107 -x+1/2,+y+1/2,-z+1/2
    -108 -y+1/2,-x+1/2,-z+1/2
_cell_length_a     5.68278(2)
_cell_length_b     5.682775
_cell_length_c     8.02337(5)
_cell_angle_alpha     90.0
_cell_angle_beta     90.0
_cell_angle_gamma     90.0
_cell_volume     259.106(2)
_cell_formula_units_Z     4
_cell_measurement_temperature     14
_cell_special_details
; ?
;
_exptl_crystal_density_diffrn     ?
_exptl_crystal_density_meas     ?
_exptl_crystal_density_method     ?
_exptl_crystal_F_000     ?
_pd_char_particle_morphology     'powder'
loop_
    _atom_type_symbol
    _atom_type_number_in_cell
    Ba 4.0
    Fe 2.0
    Re 2.0
    O 12.0
_computing_structure_solution     'GSAS (Larson & Von Dreele, 2001)'
_pd_phase_name     Tetragonal
loop_
    _atom_site_type_symbol
    _atom_site_label
    _atom_site_fract_x
    _atom_site_fract_y
    _atom_site_fract_z
    _atom_site_U_iso_or_equiv
    _atom_site_thermal_displace_type
    _atom_site_occupancy
    _atom_site_symmetry_multiplicity
    Fe FE1 0.0 0.0 0.0 0.00840(17) Uiso 0.9646 2
    Re RE2 0.0 0.0 0.5 0.00840(17) Uiso 0.9646 2
    Ba BA3 0.5 0.0 0.25 0.00325(16) Uiso 1.0 4
    O O4 0.2570(13) 0.2570(13) 0.0 0.0011(10) Uiso 1.0 8
    O O5 0.0 0.0 0.255(2)   0.0011(10) Uiso 1.0 4
    Fe FE6 0.0 0.0 0.5 0.00840(17) Uiso 0.0354 2
    Re RE7 0.0 0.0 0.0 0.00840(17) Uiso 0.0354 2
_geom_special_details     ?
loop_
    _geom_bond_atom_site_label_1
    _geom_bond_atom_site_label_2
    _geom_bond_site_symmetry_1
    _geom_bond_site_symmetry_2
    _geom_bond_distance
    _geom_bond_publ_flag
    FE1 BA3 . 1_455 3.478060(10) N
    FE1 BA3 . 1_555 3.478060(10) N
    FE1 BA3 . 2_545 3.478060(10) N
    FE1 BA3 . 2_555 3.478060(10) N
    FE1 BA3 . -1_555 3.478060(10) N
    FE1 BA3 . -1_655 3.478060(10) N
    FE1 BA3 . -2_555 3.478060(10) N
    FE1 BA3 . -2_565 3.478060(10) N
    FE1 O4 . 1_555 2.065(11) N
    FE1 O4 . 2_555 2.065(11) N
    FE1 O4 . 3_555 2.065(11) N
    FE1 O4 . 4_555 2.065(11) N
    FE1 O5 . 1_555 2.044(17) N
    FE1 O5 . -1_555 2.044(17) N
    RE2 BA3 . 1_455 3.478060(10) N
    RE2 BA3 . 1_555 3.478060(10) N
    RE2 BA3 . 2_545 3.478060(10) N
    RE2 BA3 . 2_555 3.478060(10) N
    RE2 BA3 . -1_556 3.478060(10) N
    RE2 BA3 . -1_656 3.478060(10) N
    RE2 BA3 . -2_556 3.478060(10) N
    RE2 BA3 . -2_566 3.478060(10) N
    RE2 O4 . 101_445 1.953(11) N
    RE2 O4 . 102_545 1.953(11) N
    RE2 O4 . 103_555 1.953(11) N
    RE2 O4 . 104_455 1.953(11) N
    RE2 O5 . 1_555 1.968(17) N
    RE2 O5 . -1_556 1.968(17) N
    BA3 FE1 . 1_555 3.478060(10) N
    BA3 FE1 . 1_655 3.478060(10) N
    BA3 FE1 . 101_545 3.478060(10) N
    BA3 FE1 . 101_555 3.478060(10) N
    BA3 RE2 . 1_555 3.478060(10) N
    BA3 RE2 . 1_655 3.478060(10) N
    BA3 RE2 . 101_544 3.478060(10) N
    BA3 RE2 . 101_554 3.478060(10) N
    BA3 BA3 . 2_545 4.018330(10) N
    BA3 BA3 . 2_555 4.018330(10) N
    BA3 BA3 . 2_645 4.018330(10) N
    BA3 BA3 . 2_655 4.018330(10) N
    BA3 BA3 . -1_655 4.01168(3)   N
    BA3 BA3 . -1_656 4.01168(3)   N
    BA3 O4 . 1_555 2.8396(2)   N
    BA3 O4 . 2_655 2.8396(2)   N
    BA3 O4 . 3_655 2.8396(2)   N
    BA3 O4 . 4_555 2.8396(2)   N
    BA3 O4 . 101_545 2.8396(2)   N
    BA3 O4 . 102_545 2.8396(2)   N
    BA3 O4 . 103_555 2.8396(2)   N
    BA3 O4 . 104_555 2.8396(2)   N
    BA3 O5 . 1_555 2.8417(2)   N
    BA3 O5 . 1_655 2.8417(2)   N
    BA3 O5 . -101_434 2.8417(2)   N
    BA3 O5 . -101_444 2.8417(2)   N
    BA3 FE6 . 1_555 3.478060(10) N
    BA3 FE6 . 1_655 3.478060(10) N
    BA3 FE6 . 101_544 3.478060(10) N
    BA3 FE6 . 101_554 3.478060(10) N
    BA3 RE7 . 1_555 3.478060(10) N
    BA3 RE7 . 1_655 3.478060(10) N
    BA3 RE7 . 101_545 3.478060(10) N
    BA3 RE7 . 101_555 3.478060(10) N
    O4 FE1 . 1_555 2.065(11) N
    O4 RE2 . 101_554 1.953(11) N
    O4 BA3 . 1_555 2.8396(2)   N
    O4 BA3 . 2_555 2.8396(2)   N
    O4 BA3 . -1_655 2.8396(2)   N
    O4 BA3 . -2_565 2.8396(2)   N
    O4 FE6 . 101_554 1.953(11) N
    O4 RE7 . 1_555 2.065(11) N
    O5 FE1 . 1_555 2.044(17) N
    O5 RE2 . 1_555 1.968(17) N
    O5 BA3 . 1_455 2.8417(2)   N
    O5 BA3 . 1_555 2.8417(2)   N
    O5 BA3 . 2_545 2.8417(2)   N
    O5 BA3 . 2_555 2.8417(2)   N
    O5 FE6 . 1_555 1.968(17) N
    O5 RE7 . 1_555 2.044(17) N
    FE6 BA3 . 1_455 3.478060(10) N
    FE6 BA3 . 1_555 3.478060(10) N
    FE6 BA3 . 2_545 3.478060(10) N
    FE6 BA3 . 2_555 3.478060(10) N
    FE6 BA3 . -1_556 3.478060(10) N
    FE6 BA3 . -1_656 3.478060(10) N
    FE6 BA3 . -2_556 3.478060(10) N
    FE6 BA3 . -2_566 3.478060(10) N
    FE6 O4 . 101_445 1.953(11) N
    FE6 O4 . 102_545 1.953(11) N
    FE6 O4 . 103_555 1.953(11) N
    FE6 O4 . 104_455 1.953(11) N
    FE6 O5 . 1_555 1.968(17) N
    FE6 O5 . -1_556 1.968(17) N
    RE7 BA3 . 1_455 3.478060(10) N
    RE7 BA3 . 1_555 3.478060(10) N
    RE7 BA3 . 2_545 3.478060(10) N
    RE7 BA3 . 2_555 3.478060(10) N
    RE7 BA3 . -1_555 3.478060(10) N
    RE7 BA3 . -1_655 3.478060(10) N
    RE7 BA3 . -2_555 3.478060(10) N
    RE7 BA3 . -2_565 3.478060(10) N
    RE7 O4 . 1_555 2.065(11) N
    RE7 O4 . 2_555 2.065(11) N
    RE7 O4 . 3_555 2.065(11) N
    RE7 O4 . 4_555 2.065(11) N
    RE7 O5 . 1_555 2.044(17) N
    RE7 O5 . -1_555 2.044(17) N
loop_
    _geom_angle_atom_site_label_1
    _geom_angle_atom_site_label_2
    _geom_angle_atom_site_label_3
    _geom_angle_site_symmetry_1
    _geom_angle_site_symmetry_2
    _geom_angle_site_symmetry_3
    _geom_angle
    _geom_angle_publ_flag
    BA3 FE1 BA3 1_455 . 1_555 109.5606(4) N
    BA3 FE1 BA3 1_455 . 2_545 70.5734(2)   N
    BA3 FE1 BA3 1_455 . 2_555 70.5734(2)   N
    BA3 FE1 BA3 1_455 . -1_555 70.4394(4) N
    BA3 FE1 BA3 1_455 . -1_655 180.0 N
    BA3 FE1 BA3 1_455 . -2_555 109.4265(2)   N
    BA3 FE1 BA3 1_455 . -2_565 109.4265(2)   N
    BA3 FE1 O4 1_455 . 1_555 125.28670(10) N
    BA3 FE1 O4 1_455 . 2_555 54.71330(10) N
    BA3 FE1 O4 1_455 . 3_555 54.71330(10) N
    BA3 FE1 O4 1_455 . 4_555 125.28670(10) N
    BA3 FE1 O5 1_455 . 1_555 54.7803(2)   N
    BA3 FE1 O5 1_455 . -1_555 125.2197(2)   N
    BA3 FE1 BA3 1_555 . 2_545 70.5734(2)   N
    BA3 FE1 BA3 1_555 . 2_555 70.5734(2)   N
    BA3 FE1 BA3 1_555 . -1_555 180.0 N
    BA3 FE1 BA3 1_555 . -1_655 70.4394(4) N
    BA3 FE1 BA3 1_555 . -2_555 109.4266(2)   N
    BA3 FE1 BA3 1_555 . -2_565 109.4265(2)   N
    BA3 FE1 O4 1_555 . 1_555 54.71330(10) N
    BA3 FE1 O4 1_555 . 2_555 125.28670(10) N
    BA3 FE1 O4 1_555 . 3_555 125.28670(10) N
    BA3 FE1 O4 1_555 . 4_555 54.71330(10) N
    BA3 FE1 O5 1_555 . 1_555 54.7803(2)   N
    BA3 FE1 O5 1_555 . -1_555 125.2197(2)   N
    BA3 FE1 BA3 2_545 . 2_555 109.5606(4) N
    BA3 FE1 BA3 2_545 . -1_555 109.4265(2)   N
    BA3 FE1 BA3 2_545 . -1_655 109.4265(2)   N
    BA3 FE1 BA3 2_545 . -2_555 70.4394(4) N
    BA3 FE1 BA3 2_545 . -2_565 180.0 N
    BA3 FE1 O4 2_545 . 1_555 125.28670(10) N
    BA3 FE1 O4 2_545 . 2_555 125.28670(10) N
    BA3 FE1 O4 2_545 . 3_555 54.71330(10) N
    BA3 FE1 O4 2_545 . 4_555 54.71330(10) N
    BA3 FE1 O5 2_545 . 1_555 54.7803(2)   N
    BA3 FE1 O5 2_545 . -1_555 125.2197(2)   N
    BA3 FE1 BA3 2_555 . -1_555 109.4266(2)   N
    BA3 FE1 BA3 2_555 . -1_655 109.4265(2)   N
    BA3 FE1 BA3 2_555 . -2_555 180.0 N
    BA3 FE1 BA3 2_555 . -2_565 70.4394(4) N
    BA3 FE1 O4 2_555 . 1_555 54.71330(10) N
    BA3 FE1 O4 2_555 . 2_555 54.71330(10) N
    BA3 FE1 O4 2_555 . 3_555 125.28670(10) N
    BA3 FE1 O4 2_555 . 4_555 125.28670(10) N
    BA3 FE1 O5 2_555 . 1_555 54.7803(2)   N
    BA3 FE1 O5 2_555 . -1_555 125.2197(2)   N
    BA3 FE1 BA3 -1_555 . -1_655 109.5606(4) N
    BA3 FE1 BA3 -1_555 . -2_555 70.5734(2)   N
    BA3 FE1 BA3 -1_555 . -2_565 70.5734(2)   N
    BA3 FE1 O4 -1_555 . 1_555 125.28670(10) N
    BA3 FE1 O4 -1_555 . 2_555 54.71330(10) N
    BA3 FE1 O4 -1_555 . 3_555 54.71330(10) N
    BA3 FE1 O4 -1_555 . 4_555 125.28670(10) N
    BA3 FE1 O5 -1_555 . 1_555 125.2197(2)   N
    BA3 FE1 O5 -1_555 . -1_555 54.7803(2)   N
    BA3 FE1 BA3 -1_655 . -2_555 70.5734(2)   N
    BA3 FE1 BA3 -1_655 . -2_565 70.5734(2)   N
    BA3 FE1 O4 -1_655 . 1_555 54.71330(10) N
    BA3 FE1 O4 -1_655 . 2_555 125.28670(10) N
    BA3 FE1 O4 -1_655 . 3_555 125.28670(10) N
    BA3 FE1 O4 -1_655 . 4_555 54.71330(10) N
    BA3 FE1 O5 -1_655 . 1_555 125.2197(2)   N
    BA3 FE1 O5 -1_655 . -1_555 54.7803(2)   N
    BA3 FE1 BA3 -2_555 . -2_565 109.5606(4) N
    BA3 FE1 O4 -2_555 . 1_555 125.28670(10) N
    BA3 FE1 O4 -2_555 . 2_555 125.28670(10) N
    BA3 FE1 O4 -2_555 . 3_555 54.71330(10) N
    BA3 FE1 O4 -2_555 . 4_555 54.71330(10) N
    BA3 FE1 O5 -2_555 . 1_555 125.2197(2)   N
    BA3 FE1 O5 -2_555 . -1_555 54.7803(2)   N
    BA3 FE1 O4 -2_565 . 1_555 54.71330(10) N
    BA3 FE1 O4 -2_565 . 2_555 54.71330(10) N
    BA3 FE1 O4 -2_565 . 3_555 125.28670(10) N
    BA3 FE1 O4 -2_565 . 4_555 125.28670(10) N
    BA3 FE1 O5 -2_565 . 1_555 125.2197(2)   N
    BA3 FE1 O5 -2_565 . -1_555 54.7803(2)   N
    O4 FE1 O4 1_555 . 2_555 90.0 N
    O4 FE1 O4 1_555 . 3_555 179.9802 N
    O4 FE1 O4 1_555 . 4_555 90.0 N
    O4 FE1 O5 1_555 . 1_555 90.0 N
    O4 FE1 O5 1_555 . -1_555 90.0 N
    O4 FE1 O4 2_555 . 3_555 90.0 N
    O4 FE1 O4 2_555 . 4_555 179.972 N
    O4 FE1 O5 2_555 . 1_555 90.0 N
    O4 FE1 O5 2_555 . -1_555 90.0 N
    O4 FE1 O4 3_555 . 4_555 90.0 N
    O4 FE1 O5 3_555 . 1_555 90.0 N
    O4 FE1 O5 3_555 . -1_555 90.0 N
    O4 FE1 O5 4_555 . 1_555 90.0 N
    O4 FE1 O5 4_555 . -1_555 90.0 N
    O5 FE1 O5 1_555 . -1_555 180.0 N
    BA3 RE2 BA3 1_455 . 1_555 109.5606(4) N
    BA3 RE2 BA3 1_455 . 2_545 70.5734(2)   N
    BA3 RE2 BA3 1_455 . 2_555 70.5734(2)   N
    BA3 RE2 BA3 1_455 . -1_556 70.4394(4) N
    BA3 RE2 BA3 1_455 . -1_656 180.0 N
    BA3 RE2 BA3 1_455 . -2_556 109.4265(2)   N
    BA3 RE2 BA3 1_455 . -2_566 109.4266(2)   N
    BA3 RE2 O4 1_455 . 101_445 54.71330(10) N
    BA3 RE2 O4 1_455 . 102_545 125.28670(10) N
    BA3 RE2 O4 1_455 . 103_555 125.28670(10) N
    BA3 RE2 O4 1_455 . 104_455 54.71330(10) N
    BA3 RE2 O5 1_455 . 1_555 54.7803(2)   N
    BA3 RE2 O5 1_455 . -1_556 125.2197(2)   N
    BA3 RE2 BA3 1_555 . 2_545 70.5734(2)   N
    BA3 RE2 BA3 1_555 . 2_555 70.5734(2)   N
    BA3 RE2 BA3 1_555 . -1_556 180.0 N
    BA3 RE2 BA3 1_555 . -1_656 70.4394(4) N
    BA3 RE2 BA3 1_555 . -2_556 109.4265(2)   N
    BA3 RE2 BA3 1_555 . -2_566 109.4265(2)   N
    BA3 RE2 O4 1_555 . 101_445 125.28670(10) N
    BA3 RE2 O4 1_555 . 102_545 54.71330(10) N
    BA3 RE2 O4 1_555 . 103_555 54.71330(10) N
    BA3 RE2 O4 1_555 . 104_455 125.28670(10) N
    BA3 RE2 O5 1_555 . 1_555 54.7803(2)   N
    BA3 RE2 O5 1_555 . -1_556 125.2197(2)   N
    BA3 RE2 BA3 2_545 . 2_555 109.5606(4) N
    BA3 RE2 BA3 2_545 . -1_556 109.4265(2)   N
    BA3 RE2 BA3 2_545 . -1_656 109.4266(2)   N
    BA3 RE2 BA3 2_545 . -2_556 70.4394(4) N
    BA3 RE2 BA3 2_545 . -2_566 180.0 N
    BA3 RE2 O4 2_545 . 101_445 54.71330(10) N
    BA3 RE2 O4 2_545 . 102_545 54.71330(10) N
    BA3 RE2 O4 2_545 . 103_555 125.28670(10) N
    BA3 RE2 O4 2_545 . 104_455 125.28670(10) N
    BA3 RE2 O5 2_545 . 1_555 54.7803(2)   N
    BA3 RE2 O5 2_545 . -1_556 125.2197(2)   N
    BA3 RE2 BA3 2_555 . -1_556 109.4265(2)   N
    BA3 RE2 BA3 2_555 . -1_656 109.4265(2)   N
    BA3 RE2 BA3 2_555 . -2_556 180.0 N
    BA3 RE2 BA3 2_555 . -2_566 70.4394(4) N
    BA3 RE2 O4 2_555 . 101_445 125.28670(10) N
    BA3 RE2 O4 2_555 . 102_545 125.28670(10) N
    BA3 RE2 O4 2_555 . 103_555 54.71330(10) N
    BA3 RE2 O4 2_555 . 104_455 54.71330(10) N
    BA3 RE2 O5 2_555 . 1_555 54.7803(2)   N
    BA3 RE2 O5 2_555 . -1_556 125.2197(2)   N
    BA3 RE2 BA3 -1_556 . -1_656 109.5606(4) N
    BA3 RE2 BA3 -1_556 . -2_556 70.5734(2)   N
    BA3 RE2 BA3 -1_556 . -2_566 70.5734(2)   N
    BA3 RE2 O4 -1_556 . 101_445 54.71330(10) N
    BA3 RE2 O4 -1_556 . 102_545 125.28670(10) N
    BA3 RE2 O4 -1_556 . 103_555 125.28670(10) N
    BA3 RE2 O4 -1_556 . 104_455 54.71330(10) N
    BA3 RE2 O5 -1_556 . 1_555 125.2197(2)   N
    BA3 RE2 O5 -1_556 . -1_556 54.7803(2)   N
    BA3 RE2 BA3 -1_656 . -2_556 70.5734(2)   N
    BA3 RE2 BA3 -1_656 . -2_566 70.5734(2)   N
    BA3 RE2 O4 -1_656 . 101_445 125.28670(10) N
    BA3 RE2 O4 -1_656 . 102_545 54.71330(10) N
    BA3 RE2 O4 -1_656 . 103_555 54.71330(10) N
    BA3 RE2 O4 -1_656 . 104_455 125.28670(10) N
    BA3 RE2 O5 -1_656 . 1_555 125.2197(2)   N
    BA3 RE2 O5 -1_656 . -1_556 54.7803(2)   N
    BA3 RE2 BA3 -2_556 . -2_566 109.5606(4) N
    BA3 RE2 O4 -2_556 . 101_445 54.71330(10) N
    BA3 RE2 O4 -2_556 . 102_545 54.71330(10) N
    BA3 RE2 O4 -2_556 . 103_555 125.28670(10) N
    BA3 RE2 O4 -2_556 . 104_455 125.28670(10) N
    BA3 RE2 O5 -2_556 . 1_555 125.2197(2)   N
    BA3 RE2 O5 -2_556 . -1_556 54.7803(2)   N
    BA3 RE2 O4 -2_566 . 101_445 125.28670(10) N
    BA3 RE2 O4 -2_566 . 102_545 125.28670(10) N
    BA3 RE2 O4 -2_566 . 103_555 54.71330(10) N
    BA3 RE2 O4 -2_566 . 104_455 54.71330(10) N
    BA3 RE2 O5 -2_566 . 1_555 125.2197(2)   N
    BA3 RE2 O5 -2_566 . -1_556 54.7803(2)   N
    O4 RE2 O4 101_445 . 102_545 90.0 N
    O4 RE2 O4 101_445 . 103_555 180.0 N
    O4 RE2 O4 101_445 . 104_455 90.0 N
    O4 RE2 O5 101_445 . 1_555 90.0 N
    O4 RE2 O5 101_445 . -1_556 90.0 N
    O4 RE2 O4 102_545 . 103_555 90.0 N
    O4 RE2 O4 102_545 . 104_455 180.0 N
    O4 RE2 O5 102_545 . 1_555 90.0 N
    O4 RE2 O5 102_545 . -1_556 90.0 N
    O4 RE2 O4 103_555 . 104_455 90.0 N
    O4 RE2 O5 103_555 . 1_555 90.0 N
    O4 RE2 O5 103_555 . -1_556 90.0 N
    O4 RE2 O5 104_455 . 1_555 90.0 N
    O4 RE2 O5 104_455 . -1_556 90.0 N
    O5 RE2 O5 1_555 . -1_556 180.0 N
    FE1 BA3 FE1 1_555 . 1_655 109.5606(4) N
    FE1 BA3 FE1 1_555 . 101_545 109.4265(2)   N
    FE1 BA3 FE1 1_555 . 101_555 109.4266(2)   N
    FE1 BA3 RE2 1_555 . 1_555 70.4394(4) N
    FE1 BA3 RE2 1_555 . 1_655 180.0 N
    FE1 BA3 RE2 1_555 . 101_544 70.5734(2)   N
    FE1 BA3 RE2 1_555 . 101_554 70.5734(2)   N
    FE1 BA3 BA3 1_555 . 2_545 54.71330(10) N
    FE1 BA3 BA3 1_555 . 2_555 54.71330(10) N
    FE1 BA3 BA3 1_555 . 2_645 125.28670(10) N
    FE1 BA3 BA3 1_555 . 2_655 125.28670(10) N
    FE1 BA3 BA3 1_555 . -1_655 54.7803(2)   N
    FE1 BA3 BA3 1_555 . -1_656 125.2197(2)   N
    FE1 BA3 O4 1_555 . 1_555 36.4(2)   N
    FE1 BA3 O4 1_555 . 2_655 89.43(12) N
    FE1 BA3 O4 1_555 . 3_655 89.43(12) N
    FE1 BA3 O4 1_555 . 4_555 36.4(2)   N
    FE1 BA3 O4 1_555 . 101_545 145.8(2)   N
    FE1 BA3 O4 1_555 . 102_545 89.27(12) N
    FE1 BA3 O4 1_555 . 103_555 89.27(12) N
    FE1 BA3 O4 1_555 . 104_555 145.8(2)   N
    FE1 BA3 O5 1_555 . 1_555 36.0(3)   N
    FE1 BA3 O5 1_555 . 1_655 145.6(3)   N
    FE1 BA3 O5 1_555 . -101_434 89.6(2)   N
    FE1 BA3 FE1 1_655 . 101_545 109.4265(2)   N
    FE1 BA3 FE1 1_655 . 101_555 109.4265(2)   N
    FE1 BA3 RE2 1_655 . 1_555 180.0 N
    FE1 BA3 RE2 1_655 . 1_655 70.4394(4) N
    FE1 BA3 RE2 1_655 . 101_544 70.5734(2)   N
    FE1 BA3 RE2 1_655 . 101_554 70.5734(2)   N
    FE1 BA3 BA3 1_655 . 2_545 125.28670(10) N
    FE1 BA3 BA3 1_655 . 2_555 125.28670(10) N
    FE1 BA3 BA3 1_655 . 2_645 54.71330(10) N
    FE1 BA3 BA3 1_655 . 2_655 54.71330(10) N
    FE1 BA3 BA3 1_655 . -1_655 54.7803(2)   N
    FE1 BA3 BA3 1_655 . -1_656 125.2197(2)   N
    FE1 BA3 O4 1_655 . 1_555 89.43(12) N
    FE1 BA3 O4 1_655 . 2_655 36.4(2)   N
    FE1 BA3 O4 1_655 . 3_655 36.4(2)   N
    FE1 BA3 O4 1_655 . 4_555 89.43(12) N
    FE1 BA3 O4 1_655 . 101_545 89.27(12) N
    FE1 BA3 O4 1_655 . 102_545 145.8(2)   N
    FE1 BA3 O4 1_655 . 103_555 145.8(2)   N
    FE1 BA3 O4 1_655 . 104_555 89.27(12) N
    FE1 BA3 O5 1_655 . 1_555 145.6(3)   N
    FE1 BA3 O5 1_655 . 1_655 36.0(3)   N
    FE1 BA3 O5 1_655 . -101_434 89.6(2)   N
    FE1 BA3 FE1 101_545 . 101_555 109.5606(4) N
    FE1 BA3 RE2 101_545 . 1_555 70.5734(2)   N
    FE1 BA3 RE2 101_545 . 1_655 70.5734(2)   N
    FE1 BA3 RE2 101_545 . 101_544 70.4394(4) N
    FE1 BA3 RE2 101_545 . 101_554 180.0 N
    FE1 BA3 BA3 101_545 . 2_545 54.71330(10) N
    FE1 BA3 BA3 101_545 . 2_555 125.28670(10) N
    FE1 BA3 BA3 101_545 . 2_645 54.71330(10) N
    FE1 BA3 BA3 101_545 . 2_655 125.28670(10) N
    FE1 BA3 BA3 101_545 . -1_655 125.2197(2)   N
    FE1 BA3 BA3 101_545 . -1_656 54.7803(2)   N
    FE1 BA3 O4 101_545 . 1_555 145.8(2)   N
    FE1 BA3 O4 101_545 . 2_655 145.8(2)   N
    FE1 BA3 O4 101_545 . 3_655 89.27(12) N
    FE1 BA3 O4 101_545 . 4_555 89.27(12) N
    FE1 BA3 O4 101_545 . 101_545 36.4(2)   N
    FE1 BA3 O4 101_545 . 102_545 36.4(2)   N
    FE1 BA3 O4 101_545 . 103_555 89.43(12) N
    FE1 BA3 O4 101_545 . 104_555 89.43(12) N
    FE1 BA3 O5 101_545 . 1_555 89.6(2)   N
    FE1 BA3 O5 101_545 . 1_655 89.6(2)   N
    FE1 BA3 O5 101_545 . -101_434 36.0(3)   N
    FE1 BA3 RE2 101_555 . 1_555 70.5734(2)   N
    FE1 BA3 RE2 101_555 . 1_655 70.5734(2)   N
    FE1 BA3 RE2 101_555 . 101_544 180.0 N
    FE1 BA3 RE2 101_555 . 101_554 70.4394(4) N
    FE1 BA3 BA3 101_555 . 2_545 125.28670(10) N
    FE1 BA3 BA3 101_555 . 2_555 54.71330(10) N
    FE1 BA3 BA3 101_555 . 2_645 125.28670(10) N
    FE1 BA3 BA3 101_555 . 2_655 54.71330(10) N
    FE1 BA3 BA3 101_555 . -1_655 125.2197(2)   N
    FE1 BA3 BA3 101_555 . -1_656 54.7803(2)   N
    FE1 BA3 O4 101_555 . 1_555 89.27(12) N
    FE1 BA3 O4 101_555 . 2_655 89.27(12) N
    FE1 BA3 O4 101_555 . 3_655 145.8(2)   N
    FE1 BA3 O4 101_555 . 4_555 145.8(2)   N
    FE1 BA3 O4 101_555 . 101_545 89.43(12) N
    FE1 BA3 O4 101_555 . 102_545 89.43(12) N
    FE1 BA3 O4 101_555 . 103_555 36.4(2)   N
    FE1 BA3 O4 101_555 . 104_555 36.4(2)   N
    FE1 BA3 O5 101_555 . 1_555 89.6(2)   N
    FE1 BA3 O5 101_555 . 1_655 89.6(2)   N
    FE1 BA3 O5 101_555 . -101_434 145.6(3)   N
    RE2 BA3 RE2 1_555 . 1_655 109.5606(4) N
    RE2 BA3 RE2 1_555 . 101_544 109.4265(2)   N
    RE2 BA3 RE2 1_555 . 101_554 109.4265(2)   N
    RE2 BA3 BA3 1_555 . 2_545 54.71330(10) N
    RE2 BA3 BA3 1_555 . 2_555 54.71330(10) N
    RE2 BA3 BA3 1_555 . 2_645 125.28670(10) N
    RE2 BA3 BA3 1_555 . 2_655 125.28670(10) N
    RE2 BA3 BA3 1_555 . -1_655 125.2197(2)   N
    RE2 BA3 BA3 1_555 . -1_656 54.7803(2)   N
    RE2 BA3 O4 1_555 . 1_555 90.57(12) N
    RE2 BA3 O4 1_555 . 2_655 143.6(2)   N
    RE2 BA3 O4 1_555 . 3_655 143.6(2)   N
    RE2 BA3 O4 1_555 . 4_555 90.57(12) N
    RE2 BA3 O4 1_555 . 101_545 90.73(12) N
    RE2 BA3 O4 1_555 . 102_545 34.2(2)   N
    RE2 BA3 O4 1_555 . 103_555 34.2(2)   N
    RE2 BA3 O4 1_555 . 104_555 90.73(12) N
    RE2 BA3 O5 1_555 . 1_555 34.5(3)   N
    RE2 BA3 O5 1_555 . 1_655 144.0(3)   N
    RE2 BA3 O5 1_555 . -101_434 90.4(2)   N
    RE2 BA3 RE2 1_655 . 101_544 109.4266(2)   N
    RE2 BA3 RE2 1_655 . 101_554 109.4265(2)   N
    RE2 BA3 BA3 1_655 . 2_545 125.28670(10) N
    RE2 BA3 BA3 1_655 . 2_555 125.28670(10) N
    RE2 BA3 BA3 1_655 . 2_645 54.71330(10) N
    RE2 BA3 BA3 1_655 . 2_655 54.71330(10) N
    RE2 BA3 BA3 1_655 . -1_655 125.2197(2)   N
    RE2 BA3 BA3 1_655 . -1_656 54.7803(2)   N
    RE2 BA3 O4 1_655 . 1_555 143.6(2)   N
    RE2 BA3 O4 1_655 . 2_655 90.57(12) N
    RE2 BA3 O4 1_655 . 3_655 90.57(12) N
    RE2 BA3 O4 1_655 . 4_555 143.6(2)   N
    RE2 BA3 O4 1_655 . 101_545 34.2(2)   N
    RE2 BA3 O4 1_655 . 102_545 90.73(12) N
    RE2 BA3 O4 1_655 . 103_555 90.73(12) N
    RE2 BA3 O4 1_655 . 104_555 34.2(2)   N
    RE2 BA3 O5 1_655 . 1_555 144.0(3)   N
    RE2 BA3 O5 1_655 . 1_655 34.5(3)   N
    RE2 BA3 O5 1_655 . -101_434 90.4(2)   N
    RE2 BA3 RE2 101_544 . 101_554 109.5606(4) N
    RE2 BA3 BA3 101_544 . 2_545 54.71330(10) N
    RE2 BA3 BA3 101_544 . 2_555 125.28670(10) N
    RE2 BA3 BA3 101_544 . 2_645 54.71330(10) N
    RE2 BA3 BA3 101_544 . 2_655 125.28670(10) N
    RE2 BA3 BA3 101_544 . -1_655 54.7803(2)   N
    RE2 BA3 BA3 101_544 . -1_656 125.2197(2)   N
    RE2 BA3 O4 101_544 . 1_555 90.73(12) N
    RE2 BA3 O4 101_544 . 2_655 90.73(12) N
    RE2 BA3 O4 101_544 . 3_655 34.2(2)   N
    RE2 BA3 O4 101_544 . 4_555 34.2(2)   N
    RE2 BA3 O4 101_544 . 101_545 90.57(12) N
    RE2 BA3 O4 101_544 . 102_545 90.57(12) N
    RE2 BA3 O4 101_544 . 103_555 143.6(2)   N
    RE2 BA3 O4 101_544 . 104_555 143.6(2)   N
    RE2 BA3 O5 101_544 . 1_555 90.4(2)   N
    RE2 BA3 O5 101_544 . 1_655 90.4(2)   N
    RE2 BA3 O5 101_544 . -101_434 34.5(3)   N
    RE2 BA3 BA3 101_554 . 2_545 125.28670(10) N
    RE2 BA3 BA3 101_554 . 2_555 54.71330(10) N
    RE2 BA3 BA3 101_554 . 2_645 125.28670(10) N
    RE2 BA3 BA3 101_554 . 2_655 54.71330(10) N
    RE2 BA3 BA3 101_554 . -1_655 54.7803(2)   N
    RE2 BA3 BA3 101_554 . -1_656 125.2197(2)   N
    RE2 BA3 O4 101_554 . 1_555 34.2(2)   N
    RE2 BA3 O4 101_554 . 2_655 34.2(2)   N
    RE2 BA3 O4 101_554 . 3_655 90.73(12) N
    RE2 BA3 O4 101_554 . 4_555 90.73(12) N
    RE2 BA3 O4 101_554 . 101_545 143.6(2)   N
    RE2 BA3 O4 101_554 . 102_545 143.6(2)   N
    RE2 BA3 O4 101_554 . 103_555 90.57(12) N
    RE2 BA3 O4 101_554 . 104_555 90.57(12) N
    RE2 BA3 O5 101_554 . 1_555 90.4(2)   N
    RE2 BA3 O5 101_554 . 1_655 90.4(2)   N
    RE2 BA3 O5 101_554 . -101_434 144.0(3)   N
    BA3 BA3 BA3 2_545 . 2_555 90.0 N
    BA3 BA3 BA3 2_545 . 2_645 90.0 N
    BA3 BA3 BA3 2_545 . 2_655 180.0 N
    BA3 BA3 BA3 2_545 . -1_655 90.0 N
    BA3 BA3 BA3 2_545 . -1_656 90.0 N
    BA3 BA3 O4 2_545 . 1_555 91.1(2)   N
    BA3 BA3 O4 2_545 . 2_655 135.036(4) N
    BA3 BA3 O4 2_545 . 3_655 88.9(2)   N
    BA3 BA3 O4 2_545 . 4_555 44.964(4) N
    BA3 BA3 O4 2_545 . 101_545 91.1(2)   N
    BA3 BA3 O4 2_545 . 102_545 44.964(4) N
    BA3 BA3 O4 2_545 . 103_555 88.9(2)   N
    BA3 BA3 O4 2_545 . 104_555 135.036(4) N
    BA3 BA3 O5 2_545 . 1_555 45.005(5) N
    BA3 BA3 O5 2_545 . 1_655 134.995(5) N
    BA3 BA3 O5 2_545 . -101_434 45.005(5) N
    BA3 BA3 BA3 2_555 . 2_645 180.0 N
    BA3 BA3 BA3 2_555 . 2_655 90.0 N
    BA3 BA3 BA3 2_555 . -1_655 90.0 N
    BA3 BA3 BA3 2_555 . -1_656 90.0 N
    BA3 BA3 O4 2_555 . 1_555 44.964(4) N
    BA3 BA3 O4 2_555 . 2_655 88.9(2)   N
    BA3 BA3 O4 2_555 . 3_655 135.036(4) N
    BA3 BA3 O4 2_555 . 4_555 91.1(2)   N
    BA3 BA3 O4 2_555 . 101_545 135.036(4) N
    BA3 BA3 O4 2_555 . 102_545 88.9(2)   N
    BA3 BA3 O4 2_555 . 103_555 44.964(4) N
    BA3 BA3 O4 2_555 . 104_555 91.1(2)   N
    BA3 BA3 O5 2_555 . 1_555 45.005(5) N
    BA3 BA3 O5 2_555 . 1_655 134.995(5) N
    BA3 BA3 O5 2_555 . -101_434 134.995(5) N
    BA3 BA3 BA3 2_645 . 2_655 90.0 N
    BA3 BA3 BA3 2_645 . -1_655 90.0 N
    BA3 BA3 BA3 2_645 . -1_656 90.0 N
    BA3 BA3 O4 2_645 . 1_555 135.036(4) N
    BA3 BA3 O4 2_645 . 2_655 91.1(2)   N
    BA3 BA3 O4 2_645 . 3_655 44.964(4) N
    BA3 BA3 O4 2_645 . 4_555 88.9(2)   N
    BA3 BA3 O4 2_645 . 101_545 44.964(4) N
    BA3 BA3 O4 2_645 . 102_545 91.1(2)   N
    BA3 BA3 O4 2_645 . 103_555 135.036(4) N
    BA3 BA3 O4 2_645 . 104_555 88.9(2)   N
    BA3 BA3 O5 2_645 . 1_555 134.995(5) N
    BA3 BA3 O5 2_645 . 1_655 45.005(5) N
    BA3 BA3 O5 2_645 . -101_434 45.005(5) N
    BA3 BA3 BA3 2_655 . -1_655 90.0 N
    BA3 BA3 BA3 2_655 . -1_656 90.0 N
    BA3 BA3 O4 2_655 . 1_555 88.9(2)   N
    BA3 BA3 O4 2_655 . 2_655 44.964(4) N
    BA3 BA3 O4 2_655 . 3_655 91.1(2)   N
    BA3 BA3 O4 2_655 . 4_555 135.036(4) N
    BA3 BA3 O4 2_655 . 101_545 88.9(2)   N
    BA3 BA3 O4 2_655 . 102_545 135.036(4) N
    BA3 BA3 O4 2_655 . 103_555 91.1(2)   N
    BA3 BA3 O4 2_655 . 104_555 44.964(4) N
    BA3 BA3 O5 2_655 . 1_555 134.995(5) N
    BA3 BA3 O5 2_655 . 1_655 45.005(5) N
    BA3 BA3 O5 2_655 . -101_434 134.995(5) N
    BA3 BA3 BA3 -1_655 . -1_656 180.0 N
    BA3 BA3 O4 -1_655 . 1_555 45.058(4) N
    BA3 BA3 O4 -1_655 . 2_655 45.058(4) N
    BA3 BA3 O4 -1_655 . 3_655 45.058(4) N
    BA3 BA3 O4 -1_655 . 4_555 45.058(4) N
    BA3 BA3 O4 -1_655 . 101_545 134.941(4) N
    BA3 BA3 O4 -1_655 . 102_545 134.941(4) N
    BA3 BA3 O4 -1_655 . 103_555 134.941(4) N
    BA3 BA3 O4 -1_655 . 104_555 134.941(4) N
    BA3 BA3 O5 -1_655 . 1_555 90.8(3)   N
    BA3 BA3 O5 -1_655 . 1_655 90.8(3)   N
    BA3 BA3 O5 -1_655 . -101_434 89.2(3)   N
    BA3 BA3 O4 -1_656 . 1_555 134.941(4) N
    BA3 BA3 O4 -1_656 . 2_655 134.941(4) N
    BA3 BA3 O4 -1_656 . 3_655 134.941(4) N
    BA3 BA3 O4 -1_656 . 4_555 134.941(4) N
    BA3 BA3 O4 -1_656 . 101_545 45.058(4) N
    BA3 BA3 O4 -1_656 . 102_545 45.058(4) N
    BA3 BA3 O4 -1_656 . 103_555 45.058(4) N
    BA3 BA3 O4 -1_656 . 104_555 45.058(4) N
    BA3 BA3 O5 -1_656 . 1_555 89.2(3)   N
    BA3 BA3 O5 -1_656 . 1_655 89.2(3)   N
    BA3 BA3 O5 -1_656 . -101_434 90.8(3)   N
    O4 BA3 O4 1_555 . 2_655 58.2(4) N
    O4 BA3 O4 1_555 . 3_655 90.117(8) N
    O4 BA3 O4 1_555 . 4_555 61.9(4)   N
    O4 BA3 O4 1_555 . 101_545 177.7(4) N
    O4 BA3 O4 1_555 . 102_545 119.932(5) N
    O4 BA3 O4 1_555 . 103_555 89.927(9) N
    O4 BA3 O4 1_555 . 104_555 119.932(5) N
    O4 BA3 O5 1_555 . 1_555 61.5(3)   N
    O4 BA3 O5 1_555 . 1_655 119.7(4) N
    O4 BA3 O5 1_555 . -101_434 120.3(4) N
    O4 BA3 O4 2_655 . 3_655 61.9(4)   N
    O4 BA3 O4 2_655 . 4_555 90.117(8) N
    O4 BA3 O4 2_655 . 101_545 119.932(5) N
    O4 BA3 O4 2_655 . 102_545 177.7(4) N
    O4 BA3 O4 2_655 . 103_555 119.932(5) N
    O4 BA3 O4 2_655 . 104_555 89.927(9) N
    O4 BA3 O5 2_655 . 1_555 119.7(4) N
    O4 BA3 O5 2_655 . 1_655 61.5(3)   N
    O4 BA3 O5 2_655 . -101_434 120.3(4) N
    O4 BA3 O4 3_655 . 4_555 58.2(4) N
    O4 BA3 O4 3_655 . 101_545 89.927(9) N
    O4 BA3 O4 3_655 . 102_545 119.932(5) N
    O4 BA3 O4 3_655 . 103_555 177.7(4) N
    O4 BA3 O4 3_655 . 104_555 119.932(5) N
    O4 BA3 O5 3_655 . 1_555 119.7(4) N
    O4 BA3 O5 3_655 . 1_655 61.5(3)   N
    O4 BA3 O5 3_655 . -101_434 58.4(3)   N
    O4 BA3 O4 4_555 . 101_545 119.932(5) N
    O4 BA3 O4 4_555 . 102_545 89.927(9) N
    O4 BA3 O4 4_555 . 103_555 119.932(5) N
    O4 BA3 O4 4_555 . 104_555 177.7(4) N
    O4 BA3 O5 4_555 . 1_555 61.5(3)   N
    O4 BA3 O5 4_555 . 1_655 119.7(4) N
    O4 BA3 O5 4_555 . -101_434 58.4(3)   N
    O4 BA3 O4 101_545 . 102_545 61.9(4)   N
    O4 BA3 O4 101_545 . 103_555 90.117(8) N
    O4 BA3 O4 101_545 . 104_555 58.2(4) N
    O4 BA3 O5 101_545 . 1_555 120.3(4) N
    O4 BA3 O5 101_545 . 1_655 58.4(3)   N
    O4 BA3 O5 101_545 . -101_434 61.5(3)   N
    O4 BA3 O4 102_545 . 103_555 58.2(4) N
    O4 BA3 O4 102_545 . 104_555 90.117(8) N
    O4 BA3 O5 102_545 . 1_555 58.4(3)   N
    O4 BA3 O5 102_545 . 1_655 120.3(4) N
    O4 BA3 O5 102_545 . -101_434 61.5(3)   N
    O4 BA3 O4 103_555 . 104_555 61.9(4)   N
    O4 BA3 O5 103_555 . 1_555 58.4(3)   N
    O4 BA3 O5 103_555 . 1_655 120.3(4) N
    O4 BA3 O5 103_555 . -101_434 119.7(4) N
    O4 BA3 O5 104_555 . 1_555 120.3(4) N
    O4 BA3 O5 104_555 . 1_655 58.4(3)   N
    O4 BA3 O5 104_555 . -101_434 119.7(4) N
    O5 BA3 O5 1_555 . 1_655 178.5(7) N
    O5 BA3 O5 1_555 . -101_434 90.010(9) N
    O5 BA3 O5 1_655 . -101_434 90.010(9) N
    FE1 O4 RE2 1_555 . 101_554 180.0 N
    FE1 O4 BA3 1_555 . 1_555 88.9(2)   N
    FE1 O4 BA3 1_555 . 2_555 88.9(2)   N
    FE1 O4 BA3 1_555 . -1_655 88.9(2)   N
    FE1 O4 BA3 1_555 . -2_565 88.9(2)   N
    FE1 O4 FE6 1_555 . 101_554 180.0 N
    FE1 O4 RE7 1_555 . 1_555 0.0 N
    RE2 O4 BA3 101_554 . 1_555 91.1(2)   N
    RE2 O4 BA3 101_554 . 2_555 91.1(2)   N
    RE2 O4 BA3 101_554 . -1_655 91.1(2)   N
    RE2 O4 BA3 101_554 . -2_565 91.1(2)   N
    RE2 O4 FE6 101_554 . 101_554 0.0 N
    RE2 O4 RE7 101_554 . 1_555 180.0 N
    BA3 O4 BA3 1_555 . 2_555 90.073(9) N
    BA3 O4 BA3 1_555 . -1_655 89.883(8) N
    BA3 O4 BA3 1_555 . -2_565 177.7(4) N
    BA3 O4 FE6 1_555 . 101_554 91.1(2)   N
    BA3 O4 RE7 1_555 . 1_555 88.9(2)   N
    BA3 O4 BA3 2_555 . -1_655 177.7(4) N
    BA3 O4 BA3 2_555 . -2_565 89.883(8) N
    BA3 O4 FE6 2_555 . 101_554 91.1(2)   N
    BA3 O4 RE7 2_555 . 1_555 88.9(2)   N
    BA3 O4 BA3 -1_655 . -2_565 90.073(9) N
    BA3 O4 FE6 -1_655 . 101_554 91.1(2)   N
    BA3 O4 RE7 -1_655 . 1_555 88.9(2)   N
    BA3 O4 FE6 -2_565 . 101_554 91.1(2)   N
    BA3 O4 RE7 -2_565 . 1_555 88.9(2)   N
    FE6 O4 RE7 101_554 . 1_555 180.0 N
    FE1 O5 RE2 1_555 . 1_555 180.0 N
    FE1 O5 BA3 1_555 . 1_455 89.2(3)   N
    FE1 O5 BA3 1_555 . 1_555 89.2(3)   N
    FE1 O5 BA3 1_555 . 2_545 89.2(3)   N
    FE1 O5 BA3 1_555 . 2_555 89.2(3)   N
    FE1 O5 FE6 1_555 . 1_555 180.0 N
    FE1 O5 RE7 1_555 . 1_555 0.0 N
    RE2 O5 BA3 1_555 . 1_455 90.8(3)   N
    RE2 O5 BA3 1_555 . 1_555 90.8(3)   N
    RE2 O5 BA3 1_555 . 2_545 90.8(3)   N
    RE2 O5 BA3 1_555 . 2_555 90.8(3)   N
    RE2 O5 FE6 1_555 . 1_555 0.0 N
    RE2 O5 RE7 1_555 . 1_555 180.0 N
    BA3 O5 BA3 1_455 . 1_555 178.5(7) N
    BA3 O5 BA3 1_455 . 2_545 89.990(9) N
    BA3 O5 BA3 1_455 . 2_555 89.990(9) N
    BA3 O5 FE6 1_455 . 1_555 90.8(3)   N
    BA3 O5 RE7 1_455 . 1_555 89.2(3)   N
    BA3 O5 BA3 1_555 . 2_545 89.990(9) N
    BA3 O5 BA3 1_555 . 2_555 89.990(9) N
    BA3 O5 FE6 1_555 . 1_555 90.8(3)   N
    BA3 O5 RE7 1_555 . 1_555 89.2(3)   N
    BA3 O5 BA3 2_545 . 2_555 178.5(7) N
    BA3 O5 FE6 2_545 . 1_555 90.8(3)   N
    BA3 O5 RE7 2_545 . 1_555 89.2(3)   N
    BA3 O5 FE6 2_555 . 1_555 90.8(3)   N
    BA3 O5 RE7 2_555 . 1_555 89.2(3)   N
    FE6 O5 RE7 1_555 . 1_555 180.0 N
    BA3 FE6 BA3 1_455 . 1_555 109.5606(4) N
    BA3 FE6 BA3 1_455 . 2_545 70.5734(2)   N
    BA3 FE6 BA3 1_455 . 2_555 70.5734(2)   N
    BA3 FE6 BA3 1_455 . -1_556 70.4394(4) N
    BA3 FE6 BA3 1_455 . -1_656 180.0 N
    BA3 FE6 BA3 1_455 . -2_556 109.4265(2)   N
    BA3 FE6 BA3 1_455 . -2_566 109.4266(2)   N
    BA3 FE6 O4 1_455 . 101_445 54.71330(10) N
    BA3 FE6 O4 1_455 . 102_545 125.28670(10) N
    BA3 FE6 O4 1_455 . 103_555 125.28670(10) N
    BA3 FE6 O4 1_455 . 104_455 54.71330(10) N
    BA3 FE6 O5 1_455 . 1_555 54.7803(2)   N
    BA3 FE6 O5 1_455 . -1_556 125.2197(2)   N
    BA3 FE6 BA3 1_555 . 2_545 70.5734(2)   N
    BA3 FE6 BA3 1_555 . 2_555 70.5734(2)   N
    BA3 FE6 BA3 1_555 . -1_556 180.0 N
    BA3 FE6 BA3 1_555 . -1_656 70.4394(4) N
    BA3 FE6 BA3 1_555 . -2_556 109.4265(2)   N
    BA3 FE6 BA3 1_555 . -2_566 109.4265(2)   N
    BA3 FE6 O4 1_555 . 101_445 125.28670(10) N
    BA3 FE6 O4 1_555 . 102_545 54.71330(10) N
    BA3 FE6 O4 1_555 . 103_555 54.71330(10) N
    BA3 FE6 O4 1_555 . 104_455 125.28670(10) N
    BA3 FE6 O5 1_555 . 1_555 54.7803(2)   N
    BA3 FE6 O5 1_555 . -1_556 125.2197(2)   N
    BA3 FE6 BA3 2_545 . 2_555 109.5606(4) N
    BA3 FE6 BA3 2_545 . -1_556 109.4265(2)   N
    BA3 FE6 BA3 2_545 . -1_656 109.4266(2)   N
    BA3 FE6 BA3 2_545 . -2_556 70.4394(4) N
    BA3 FE6 BA3 2_545 . -2_566 180.0 N
    BA3 FE6 O4 2_545 . 101_445 54.71330(10) N
    BA3 FE6 O4 2_545 . 102_545 54.71330(10) N
    BA3 FE6 O4 2_545 . 103_555 125.28670(10) N
    BA3 FE6 O4 2_545 . 104_455 125.28670(10) N
    BA3 FE6 O5 2_545 . 1_555 54.7803(2)   N
    BA3 FE6 O5 2_545 . -1_556 125.2197(2)   N
    BA3 FE6 BA3 2_555 . -1_556 109.4265(2)   N
    BA3 FE6 BA3 2_555 . -1_656 109.4265(2)   N
    BA3 FE6 BA3 2_555 . -2_556 180.0 N
    BA3 FE6 BA3 2_555 . -2_566 70.4394(4) N
    BA3 FE6 O4 2_555 . 101_445 125.28670(10) N
    BA3 FE6 O4 2_555 . 102_545 125.28670(10) N
    BA3 FE6 O4 2_555 . 103_555 54.71330(10) N
    BA3 FE6 O4 2_555 . 104_455 54.71330(10) N
    BA3 FE6 O5 2_555 . 1_555 54.7803(2)   N
    BA3 FE6 O5 2_555 . -1_556 125.2197(2)   N
    BA3 FE6 BA3 -1_556 . -1_656 109.5606(4) N
    BA3 FE6 BA3 -1_556 . -2_556 70.5734(2)   N
    BA3 FE6 BA3 -1_556 . -2_566 70.5734(2)   N
    BA3 FE6 O4 -1_556 . 101_445 54.71330(10) N
    BA3 FE6 O4 -1_556 . 102_545 125.28670(10) N
    BA3 FE6 O4 -1_556 . 103_555 125.28670(10) N
    BA3 FE6 O4 -1_556 . 104_455 54.71330(10) N
    BA3 FE6 O5 -1_556 . 1_555 125.2197(2)   N
    BA3 FE6 O5 -1_556 . -1_556 54.7803(2)   N
    BA3 FE6 BA3 -1_656 . -2_556 70.5734(2)   N
    BA3 FE6 BA3 -1_656 . -2_566 70.5734(2)   N
    BA3 FE6 O4 -1_656 . 101_445 125.28670(10) N
    BA3 FE6 O4 -1_656 . 102_545 54.71330(10) N
    BA3 FE6 O4 -1_656 . 103_555 54.71330(10) N
    BA3 FE6 O4 -1_656 . 104_455 125.28670(10) N
    BA3 FE6 O5 -1_656 . 1_555 125.2197(2)   N
    BA3 FE6 O5 -1_656 . -1_556 54.7803(2)   N
    BA3 FE6 BA3 -2_556 . -2_566 109.5606(4) N
    BA3 FE6 O4 -2_556 . 101_445 54.71330(10) N
    BA3 FE6 O4 -2_556 . 102_545 54.71330(10) N
    BA3 FE6 O4 -2_556 . 103_555 125.28670(10) N
    BA3 FE6 O4 -2_556 . 104_455 125.28670(10) N
    BA3 FE6 O5 -2_556 . 1_555 125.2197(2)   N
    BA3 FE6 O5 -2_556 . -1_556 54.7803(2)   N
    BA3 FE6 O4 -2_566 . 101_445 125.28670(10) N
    BA3 FE6 O4 -2_566 . 102_545 125.28670(10) N
    BA3 FE6 O4 -2_566 . 103_555 54.71330(10) N
    BA3 FE6 O4 -2_566 . 104_455 54.71330(10) N
    BA3 FE6 O5 -2_566 . 1_555 125.2197(2)   N
    BA3 FE6 O5 -2_566 . -1_556 54.7803(2)   N
    O4 FE6 O4 101_445 . 102_545 90.0 N
    O4 FE6 O4 101_445 . 103_555 180.0 N
    O4 FE6 O4 101_445 . 104_455 90.0 N
    O4 FE6 O5 101_445 . 1_555 90.0 N
    O4 FE6 O5 101_445 . -1_556 90.0 N
    O4 FE6 O4 102_545 . 103_555 90.0 N
    O4 FE6 O4 102_545 . 104_455 180.0 N
    O4 FE6 O5 102_545 . 1_555 90.0 N
    O4 FE6 O5 102_545 . -1_556 90.0 N
    O4 FE6 O4 103_555 . 104_455 90.0 N
    O4 FE6 O5 103_555 . 1_555 90.0 N
    O4 FE6 O5 103_555 . -1_556 90.0 N
    O4 FE6 O5 104_455 . 1_555 90.0 N
    O4 FE6 O5 104_455 . -1_556 90.0 N
    O5 FE6 O5 1_555 . -1_556 180.0 N
    BA3 RE7 BA3 1_455 . 1_555 109.5606(4) N
    BA3 RE7 BA3 1_455 . 2_545 70.5734(2)   N
    BA3 RE7 BA3 1_455 . 2_555 70.5734(2)   N
    BA3 RE7 BA3 1_455 . -1_555 70.4394(4) N
    BA3 RE7 BA3 1_455 . -1_655 180.0 N
    BA3 RE7 BA3 1_455 . -2_555 109.4265(2)   N
    BA3 RE7 BA3 1_455 . -2_565 109.4265(2)   N
    BA3 RE7 O4 1_455 . 1_555 125.28670(10) N
    BA3 RE7 O4 1_455 . 2_555 54.71330(10) N
    BA3 RE7 O4 1_455 . 3_555 54.71330(10) N
    BA3 RE7 O4 1_455 . 4_555 125.28670(10) N
    BA3 RE7 O5 1_455 . 1_555 54.7803(2)   N
    BA3 RE7 O5 1_455 . -1_555 125.2197(2)   N
    BA3 RE7 BA3 1_555 . 2_545 70.5734(2)   N
    BA3 RE7 BA3 1_555 . 2_555 70.5734(2)   N
    BA3 RE7 BA3 1_555 . -1_555 180.0 N
    BA3 RE7 BA3 1_555 . -1_655 70.4394(4) N
    BA3 RE7 BA3 1_555 . -2_555 109.4266(2)   N
    BA3 RE7 BA3 1_555 . -2_565 109.4265(2)   N
    BA3 RE7 O4 1_555 . 1_555 54.71330(10) N
    BA3 RE7 O4 1_555 . 2_555 125.28670(10) N
    BA3 RE7 O4 1_555 . 3_555 125.28670(10) N
    BA3 RE7 O4 1_555 . 4_555 54.71330(10) N
    BA3 RE7 O5 1_555 . 1_555 54.7803(2)   N
    BA3 RE7 O5 1_555 . -1_555 125.2197(2)   N
    BA3 RE7 BA3 2_545 . 2_555 109.5606(4) N
    BA3 RE7 BA3 2_545 . -1_555 109.4265(2)   N
    BA3 RE7 BA3 2_545 . -1_655 109.4265(2)   N
    BA3 RE7 BA3 2_545 . -2_555 70.4394(4) N
    BA3 RE7 BA3 2_545 . -2_565 180.0 N
    BA3 RE7 O4 2_545 . 1_555 125.28670(10) N
    BA3 RE7 O4 2_545 . 2_555 125.28670(10) N
    BA3 RE7 O4 2_545 . 3_555 54.71330(10) N
    BA3 RE7 O4 2_545 . 4_555 54.71330(10) N
    BA3 RE7 O5 2_545 . 1_555 54.7803(2)   N
    BA3 RE7 O5 2_545 . -1_555 125.2197(2)   N
    BA3 RE7 BA3 2_555 . -1_555 109.4266(2)   N
    BA3 RE7 BA3 2_555 . -1_655 109.4265(2)   N
    BA3 RE7 BA3 2_555 . -2_555 180.0 N
    BA3 RE7 BA3 2_555 . -2_565 70.4394(4) N
    BA3 RE7 O4 2_555 . 1_555 54.71330(10) N
    BA3 RE7 O4 2_555 . 2_555 54.71330(10) N
    BA3 RE7 O4 2_555 . 3_555 125.28670(10) N
    BA3 RE7 O4 2_555 . 4_555 125.28670(10) N
    BA3 RE7 O5 2_555 . 1_555 54.7803(2)   N
    BA3 RE7 O5 2_555 . -1_555 125.2197(2)   N
    BA3 RE7 BA3 -1_555 . -1_655 109.5606(4) N
    BA3 RE7 BA3 -1_555 . -2_555 70.5734(2)   N
    BA3 RE7 BA3 -1_555 . -2_565 70.5734(2)   N
    BA3 RE7 O4 -1_555 . 1_555 125.28670(10) N
    BA3 RE7 O4 -1_555 . 2_555 54.71330(10) N
    BA3 RE7 O4 -1_555 . 3_555 54.71330(10) N
    BA3 RE7 O4 -1_555 . 4_555 125.28670(10) N
    BA3 RE7 O5 -1_555 . 1_555 125.2197(2)   N
    BA3 RE7 O5 -1_555 . -1_555 54.7803(2)   N
    BA3 RE7 BA3 -1_655 . -2_555 70.5734(2)   N
    BA3 RE7 BA3 -1_655 . -2_565 70.5734(2)   N
    BA3 RE7 O4 -1_655 . 1_555 54.71330(10) N
    BA3 RE7 O4 -1_655 . 2_555 125.28670(10) N
    BA3 RE7 O4 -1_655 . 3_555 125.28670(10) N
    BA3 RE7 O4 -1_655 . 4_555 54.71330(10) N
    BA3 RE7 O5 -1_655 . 1_555 125.2197(2)   N
    BA3 RE7 O5 -1_655 . -1_555 54.7803(2)   N
    BA3 RE7 BA3 -2_555 . -2_565 109.5606(4) N
    BA3 RE7 O4 -2_555 . 1_555 125.28670(10) N
    BA3 RE7 O4 -2_555 . 2_555 125.28670(10) N
    BA3 RE7 O4 -2_555 . 3_555 54.71330(10) N
    BA3 RE7 O4 -2_555 . 4_555 54.71330(10) N
    BA3 RE7 O5 -2_555 . 1_555 125.2197(2)   N
    BA3 RE7 O5 -2_555 . -1_555 54.7803(2)   N
    BA3 RE7 O4 -2_565 . 1_555 54.71330(10) N
    BA3 RE7 O4 -2_565 . 2_555 54.71330(10) N
    BA3 RE7 O4 -2_565 . 3_555 125.28670(10) N
    BA3 RE7 O4 -2_565 . 4_555 125.28670(10) N
    BA3 RE7 O5 -2_565 . 1_555 125.2197(2)   N
    BA3 RE7 O5 -2_565 . -1_555 54.7803(2)   N
    O4 RE7 O4 1_555 . 2_555 90.0 N
    O4 RE7 O4 1_555 . 3_555 179.9802 N
    O4 RE7 O4 1_555 . 4_555 90.0 N
    O4 RE7 O5 1_555 . 1_555 90.0 N
    O4 RE7 O5 1_555 . -1_555 90.0 N
    O4 RE7 O4 2_555 . 3_555 90.0 N
    O4 RE7 O4 2_555 . 4_555 179.972 N
    O4 RE7 O5 2_555 . 1_555 90.0 N
    O4 RE7 O5 2_555 . -1_555 90.0 N
    O4 RE7 O4 3_555 . 4_555 90.0 N
    O4 RE7 O5 3_555 . 1_555 90.0 N
    O4 RE7 O5 3_555 . -1_555 90.0 N
    O4 RE7 O5 4_555 . 1_555 90.0 N
    O4 RE7 O5 4_555 . -1_555 90.0 N
    O5 RE7 O5 1_555 . -1_555 180.0 N
data_T400KBST_overall
loop_
    _pd_block_diffractogram_id
    2005-10-18T16:18|T400KBST_H_01|Eduardo_Granado|XPD
_refine_ls_matrix_type     full
_refine_ls_goodness_of_fit_all     1.30
_refine_ls_number_parameters     25
_refine_ls_number_restraints     0
_refine_ls_shift/su_max     0.02
_refine_ls_shift/su_mean     0.00
_computing_structure_refinement     GSAS
loop_
    _pd_phase_block_id
    2005-10-18T16:18|T400KBST_phase1|Eduardo_Granado||
    2005-10-18T16:18|T400KBST_phase2|Eduardo_Granado||
data_T400KBST_phase_1
loop_
    _pd_block_diffractogram_id
    2005-10-18T16:18|T400KBST_H_01|Eduardo_Granado|XPD
_pd_block_id     2005-10-18T16:18|T400KBST_phase1|Eduardo_Granado||
_chemical_name_systematic
; ?
;
_chemical_name_common     ?
_chemical_formula_moiety     'Ba2FeReO6'
_chemical_formula_sum     'Ba Fe0.50 O3 Re0.50'
_chemical_formula_structural     'Ba2FeReO6'
_chemical_formula_analytical     'Ba2FeReO6'
_chemical_formula_weight     306.36
_chemical_melting_point     ?
_symmetry_cell_setting     cubic
_symmetry_space_group_name_H-M     'F m 3 m'
_symmetry_space_group_name_Hall     'F m 3 m'
loop_
    _symmetry_equiv_pos_site_id
    _symmetry_equiv_pos_as_xyz
    1 +x,+y,+z
    2 +z,+x,+y
    3 +y,+z,+x
    4 +x,+y,-z
    5 -z,+x,+y
    6 +y,-z,+x
    7 -z,+x,-y
    8 -y,-z,+x
    9 +y,-z,-x
    10 -x,+y,-z
    11 -z,-x,+y
    12 +x,-y,-z
    13 +y,+x,+z
    14 +z,+y,+x
    15 +x,+z,+y
    16 +y,+x,-z
    17 -z,+y,+x
    18 +x,-z,+y
    19 -z,+y,-x
    20 -x,-z,+y
    21 +x,-z,-y
    22 -y,+x,-z
    23 -z,-y,+x
    24 +y,-x,-z
    -1 -x,-y,-z
    -2 -z,-x,-y
    -3 -y,-z,-x
    -4 -x,-y,+z
    -5 +z,-x,-y
    -6 -y,+z,-x
    -7 +z,-x,+y
    -8 +y,+z,-x
    -9 -y,+z,+x
    -10 +x,-y,+z
    -11 +z,+x,-y
    -12 -x,+y,+z
    -13 -y,-x,-z
    -14 -z,-y,-x
    -15 -x,-z,-y
    -16 -y,-x,+z
    -17 +z,-y,-x
    -18 -x,+z,-y
    -19 +z,-y,+x
    -20 +x,+z,-y
    -21 -x,+z,+y
    -22 +y,-x,+z
    -23 +z,+y,-x
    -24 -y,+x,+z
    101 +x,+y+1/2,+z+1/2
    102 +z,+x+1/2,+y+1/2
    103 +y,+z+1/2,+x+1/2
    104 +x,+y+1/2,-z+1/2
    105 -z,+x+1/2,+y+1/2
    106 +y,-z+1/2,+x+1/2
    107 -z,+x+1/2,-y+1/2
    108 -y,-z+1/2,+x+1/2
    109 +y,-z+1/2,-x+1/2
    110 -x,+y+1/2,-z+1/2
    111 -z,-x+1/2,+y+1/2
    112 +x,-y+1/2,-z+1/2
    113 +y,+x+1/2,+z+1/2
    114 +z,+y+1/2,+x+1/2
    115 +x,+z+1/2,+y+1/2
    116 +y,+x+1/2,-z+1/2
    117 -z,+y+1/2,+x+1/2
    118 +x,-z+1/2,+y+1/2
    119 -z,+y+1/2,-x+1/2
    120 -x,-z+1/2,+y+1/2
    121 +x,-z+1/2,-y+1/2
    122 -y,+x+1/2,-z+1/2
    123 -z,-y+1/2,+x+1/2
    124 +y,-x+1/2,-z+1/2
    -101 -x,-y+1/2,-z+1/2
    -102 -z,-x+1/2,-y+1/2
    -103 -y,-z+1/2,-x+1/2
    -104 -x,-y+1/2,+z+1/2
    -105 +z,-x+1/2,-y+1/2
    -106 -y,+z+1/2,-x+1/2
    -107 +z,-x+1/2,+y+1/2
    -108 +y,+z+1/2,-x+1/2
    -109 -y,+z+1/2,+x+1/2
    -110 +x,-y+1/2,+z+1/2
    -111 +z,+x+1/2,-y+1/2
    -112 -x,+y+1/2,+z+1/2
    -113 -y,-x+1/2,-z+1/2
    -114 -z,-y+1/2,-x+1/2
    -115 -x,-z+1/2,-y+1/2
    -116 -y,-x+1/2,+z+1/2
    -117 +z,-y+1/2,-x+1/2
    -118 -x,+z+1/2,-y+1/2
    -119 +z,-y+1/2,+x+1/2
    -120 +x,+z+1/2,-y+1/2
    -121 -x,+z+1/2,+y+1/2
    -122 +y,-x+1/2,+z+1/2
    -123 +z,+y+1/2,-x+1/2
    -124 -y,+x+1/2,+z+1/2
    201 +x+1/2,+y,+z+1/2
    202 +z+1/2,+x,+y+1/2
    203 +y+1/2,+z,+x+1/2
    204 +x+1/2,+y,-z+1/2
    205 -z+1/2,+x,+y+1/2
    206 +y+1/2,-z,+x+1/2
    207 -z+1/2,+x,-y+1/2
    208 -y+1/2,-z,+x+1/2
    209 +y+1/2,-z,-x+1/2
    210 -x+1/2,+y,-z+1/2
    211 -z+1/2,-x,+y+1/2
    212 +x+1/2,-y,-z+1/2
    213 +y+1/2,+x,+z+1/2
    214 +z+1/2,+y,+x+1/2
    215 +x+1/2,+z,+y+1/2
    216 +y+1/2,+x,-z+1/2
    217 -z+1/2,+y,+x+1/2
    218 +x+1/2,-z,+y+1/2
    219 -z+1/2,+y,-x+1/2
    220 -x+1/2,-z,+y+1/2
    221 +x+1/2,-z,-y+1/2
    222 -y+1/2,+x,-z+1/2
    223 -z+1/2,-y,+x+1/2
    224 +y+1/2,-x,-z+1/2
    -201 -x+1/2,-y,-z+1/2
    -202 -z+1/2,-x,-y+1/2
    -203 -y+1/2,-z,-x+1/2
    -204 -x+1/2,-y,+z+1/2
    -205 +z+1/2,-x,-y+1/2
    -206 -y+1/2,+z,-x+1/2
    -207 +z+1/2,-x,+y+1/2
    -208 +y+1/2,+z,-x+1/2
    -209 -y+1/2,+z,+x+1/2
    -210 +x+1/2,-y,+z+1/2
    -211 +z+1/2,+x,-y+1/2
    -212 -x+1/2,+y,+z+1/2
    -213 -y+1/2,-x,-z+1/2
    -214 -z+1/2,-y,-x+1/2
    -215 -x+1/2,-z,-y+1/2
    -216 -y+1/2,-x,+z+1/2
    -217 +z+1/2,-y,-x+1/2
    -218 -x+1/2,+z,-y+1/2
    -219 +z+1/2,-y,+x+1/2
    -220 +x+1/2,+z,-y+1/2
    -221 -x+1/2,+z,+y+1/2
    -222 +y+1/2,-x,+z+1/2
    -223 +z+1/2,+y,-x+1/2
    -224 -y+1/2,+x,+z+1/2
    301 +x+1/2,+y+1/2,+z
    302 +z+1/2,+x+1/2,+y
    303 +y+1/2,+z+1/2,+x
    304 +x+1/2,+y+1/2,-z
    305 -z+1/2,+x+1/2,+y
    306 +y+1/2,-z+1/2,+x
    307 -z+1/2,+x+1/2,-y
    308 -y+1/2,-z+1/2,+x
    309 +y+1/2,-z+1/2,-x
    310 -x+1/2,+y+1/2,-z
    311 -z+1/2,-x+1/2,+y
    312 +x+1/2,-y+1/2,-z
    313 +y+1/2,+x+1/2,+z
    314 +z+1/2,+y+1/2,+x
    315 +x+1/2,+z+1/2,+y
    316 +y+1/2,+x+1/2,-z
    317 -z+1/2,+y+1/2,+x
    318 +x+1/2,-z+1/2,+y
    319 -z+1/2,+y+1/2,-x
    320 -x+1/2,-z+1/2,+y
    321 +x+1/2,-z+1/2,-y
    322 -y+1/2,+x+1/2,-z
    323 -z+1/2,-y+1/2,+x
    324 +y+1/2,-x+1/2,-z
    -301 -x+1/2,-y+1/2,-z
    -302 -z+1/2,-x+1/2,-y
    -303 -y+1/2,-z+1/2,-x
    -304 -x+1/2,-y+1/2,+z
    -305 +z+1/2,-x+1/2,-y
    -306 -y+1/2,+z+1/2,-x
    -307 +z+1/2,-x+1/2,+y
    -308 +y+1/2,+z+1/2,-x
    -309 -y+1/2,+z+1/2,+x
    -310 +x+1/2,-y+1/2,+z
    -311 +z+1/2,+x+1/2,-y
    -312 -x+1/2,+y+1/2,+z
    -313 -y+1/2,-x+1/2,-z
    -314 -z+1/2,-y+1/2,-x
    -315 -x+1/2,-z+1/2,-y
    -316 -y+1/2,-x+1/2,+z
    -317 +z+1/2,-y+1/2,-x
    -318 -x+1/2,+z+1/2,-y
    -319 +z+1/2,-y+1/2,+x
    -320 +x+1/2,+z+1/2,-y
    -321 -x+1/2,+z+1/2,+y
    -322 +y+1/2,-x+1/2,+z
    -323 +z+1/2,+y+1/2,-x
    -324 -y+1/2,+x+1/2,+z
_cell_length_a     8.063327(13)
_cell_length_b     8.063327
_cell_length_c     8.063327
_cell_angle_alpha     90.0
_cell_angle_beta     90.0
_cell_angle_gamma     90.0
_cell_volume     524.255(3)
_cell_formula_units_Z     8
_cell_measurement_temperature     400
_cell_special_details
; ?
;
_exptl_crystal_density_diffrn     ?
_exptl_crystal_density_meas     ?
_exptl_crystal_density_method     ?
_exptl_crystal_F_000     ?
_pd_char_particle_morphology     'powder'
loop_
    _atom_type_symbol
    _atom_type_number_in_cell
    Ba 8.0
    Fe 4.0
    Re 4.0
    O 24.0
_computing_structure_solution     'GSAS (Larson & Von Dreele, 2001)'
_pd_phase_name     'Ba2FeReO6 Ge311/Warming/300K'
loop_
    _atom_site_type_symbol
    _atom_site_label
    _atom_site_fract_x
    _atom_site_fract_y
    _atom_site_fract_z
    _atom_site_U_iso_or_equiv
    _atom_site_thermal_displace_type
    _atom_site_occupancy
    _atom_site_symmetry_multiplicity
    Ba Ba 0.25 0.25 0.25 0.0073(2)   Uiso 1.0 8
    Fe Fe 0.0 0.0 0.0 0.0101(2)   Uiso 0.9646 4
    Re Re 0.5 0.0 0.0 0.0101(2)   Uiso 0.9646 4
    Re RE5 0.0 0.0 0.0 0.0100(2)   Uiso 0.0354 4
    Fe FE6 0.5 0.0 0.0 0.0100(2)   Uiso 0.0354 4
    O O7 0.2608(9) 0.0 0.0 0.0091(12) Uiso 1.0 24
_geom_special_details     ?
loop_
    _geom_bond_atom_site_label_1
    _geom_bond_atom_site_label_2
    _geom_bond_site_symmetry_1
    _geom_bond_site_symmetry_2
    _geom_bond_distance
    _geom_bond_publ_flag
    Ba Fe . 1_555 3.49152 N
    Ba Fe . 101_555 3.49152 N
    Ba Fe . 201_555 3.49152 N
    Ba Fe . 301_555 3.49152 N
    Ba Re . 1_555 3.49152 N
    Ba Re . 2_555 3.49152 N
    Ba Re . 3_555 3.49152 N
    Ba Re . 101_555 3.49152 N
    Ba RE5 . 1_555 3.49152 N
    Ba RE5 . 101_555 3.49152 N
    Ba RE5 . 201_555 3.49152 N
    Ba RE5 . 301_555 3.49152 N
    Ba FE6 . 1_555 3.49152 N
    Ba FE6 . 2_555 3.49152 N
    Ba FE6 . 3_555 3.49152 N
    Ba FE6 . 101_555 3.49152 N
    Ba O7 . 1_555 2.8521(2)   N
    Ba O7 . 2_555 2.8521(2)   N
    Ba O7 . 3_555 2.8521(2)   N
    Ba O7 . 101_555 2.8521(2)   N
    Ba O7 . 109_555 2.8521(2)   N
    Ba O7 . 111_555 2.8521(2)   N
    Ba O7 . 202_555 2.8521(2)   N
    Ba O7 . 209_555 2.8521(2)   N
    Ba O7 . 210_555 2.8521(2)   N
    Ba O7 . 303_555 2.8521(2)   N
    Ba O7 . 310_555 2.8521(2)   N
    Ba O7 . 311_555 2.8521(2)   N
    Fe Ba . 1_555 3.49152 N
    Fe Ba . 4_555 3.49152 N
    Fe Ba . 5_555 3.49152 N
    Fe Ba . 6_555 3.49152 N
    Fe Ba . 7_555 3.49152 N
    Fe Ba . 8_555 3.49152 N
    Fe Ba . 9_555 3.49152 N
    Fe Ba . -1_555 3.49152 N
    Fe O7 . 1_555 2.103(8) N
    Fe O7 . 2_555 2.103(8) N
    Fe O7 . 3_555 2.103(8) N
    Fe O7 . 9_555 2.103(8) N
    Fe O7 . 10_555 2.103(8) N
    Fe O7 . 11_555 2.103(8) N
    Re Ba . 1_555 3.49152 N
    Re Ba . 4_555 3.49152 N
    Re Ba . 5_655 3.49152 N
    Re Ba . 6_555 3.49152 N
    Re Ba . 7_655 3.49152 N
    Re Ba . 8_655 3.49152 N
    Re Ba . 9_555 3.49152 N
    Re Ba . -1_655 3.49152 N
    Re O7 . 1_555 1.929(8) N
    Re O7 . 10_655 1.929(8) N
    Re O7 . 203_554 1.929(8) N
    Re O7 . 209_555 1.929(8) N
    Re O7 . 302_545 1.929(8) N
    Re O7 . 311_555 1.929(8) N
    RE5 Ba . 1_555 3.49152 N
    RE5 Ba . 4_555 3.49152 N
    RE5 Ba . 5_555 3.49152 N
    RE5 Ba . 6_555 3.49152 N
    RE5 Ba . 7_555 3.49152 N
    RE5 Ba . 8_555 3.49152 N
    RE5 Ba . 9_555 3.49152 N
    RE5 Ba . -1_555 3.49152 N
    RE5 O7 . 1_555 2.103(8) N
    RE5 O7 . 2_555 2.103(8) N
    RE5 O7 . 3_555 2.103(8) N
    RE5 O7 . 9_555 2.103(8) N
    RE5 O7 . 10_555 2.103(8) N
    RE5 O7 . 11_555 2.103(8) N
    FE6 Ba . 1_555 3.49152 N
    FE6 Ba . 4_555 3.49152 N
    FE6 Ba . 5_655 3.49152 N
    FE6 Ba . 6_555 3.49152 N
    FE6 Ba . 7_655 3.49152 N
    FE6 Ba . 8_655 3.49152 N
    FE6 Ba . 9_555 3.49152 N
    FE6 Ba . -1_655 3.49152 N
    FE6 O7 . 1_555 1.929(8) N
    FE6 O7 . 10_655 1.929(8) N
    FE6 O7 . 203_554 1.929(8) N
    FE6 O7 . 209_555 1.929(8) N
    FE6 O7 . 302_545 1.929(8) N
    FE6 O7 . 311_555 1.929(8) N
    O7 Ba . 1_555 2.8521(2)   N
    O7 Ba . 4_555 2.8521(2)   N
    O7 Ba . 6_555 2.8521(2)   N
    O7 Ba . 9_555 2.8521(2)   N
    O7 Fe . 1_555 2.103(8) N
    O7 Re . 1_555 1.929(8) N
    O7 RE5 . 1_555 2.103(8) N
    O7 FE6 . 1_555 1.929(8) N
    O7 O7 . 2_555 2.974(11) N
    O7 O7 . 3_555 2.974(11) N
    O7 O7 . 9_555 2.974(11) N
    O7 O7 . 11_555 2.974(11) N
    O7 O7 . 203_554 2.728(11) N
    O7 O7 . 209_555 2.728(11) N
    O7 O7 . 302_545 2.728(11) N
    O7 O7 . 311_555 2.728(11) N
loop_
    _geom_angle_atom_site_label_1
    _geom_angle_atom_site_label_2
    _geom_angle_atom_site_label_3
    _geom_angle_site_symmetry_1
    _geom_angle_site_symmetry_2
    _geom_angle_site_symmetry_3
    _geom_angle
    _geom_angle_publ_flag
    O7 Fe O7 1_555 . 2_555 90.0 N
    O7 Fe O7 1_555 . 3_555 90.0 N
    O7 Fe O7 1_555 . 9_555 90.0 N
    O7 Fe O7 1_555 . 10_555 180.0 N
    O7 Fe O7 1_555 . 11_555 90.0 N
    O7 Fe O7 2_555 . 3_555 90.0 N
    O7 Fe O7 2_555 . 9_555 90.0 N
    O7 Fe O7 2_555 . 10_555 90.0 N
    O7 Fe O7 2_555 . 11_555 180.0 N
    O7 Fe O7 3_555 . 9_555 180.0 N
    O7 Fe O7 3_555 . 10_555 90.0 N
    O7 Fe O7 3_555 . 11_555 90.0 N
    O7 Fe O7 9_555 . 10_555 90.0 N
    O7 Fe O7 9_555 . 11_555 90.0 N
    O7 Fe O7 10_555 . 11_555 90.0 N
    O7 Re O7 1_555 . 10_655 179.9604 N
    O7 Re O7 1_555 . 203_554 90.0 N
    O7 Re O7 1_555 . 209_555 90.0 N
    O7 Re O7 1_555 . 302_545 90.0 N
    O7 Re O7 1_555 . 311_555 90.0 N
    O7 Re O7 10_655 . 203_554 90.0 N
    O7 Re O7 10_655 . 209_555 90.0 N
    O7 Re O7 10_655 . 302_545 90.0 N
    O7 Re O7 10_655 . 311_555 90.0 N
    O7 Re O7 203_554 . 209_555 180.0 N
    O7 Re O7 203_554 . 302_545 90.0 N
    O7 Re O7 203_554 . 311_555 90.0 N
    O7 Re O7 209_555 . 302_545 90.0 N
    O7 Re O7 209_555 . 311_555 90.0 N
    O7 Re O7 302_545 . 311_555 180.0 N
    O7 RE5 O7 1_555 . 2_555 90.0 N
    O7 RE5 O7 1_555 . 3_555 90.0 N
    O7 RE5 O7 1_555 . 9_555 90.0 N
    O7 RE5 O7 1_555 . 10_555 180.0 N
    O7 RE5 O7 1_555 . 11_555 90.0 N
    O7 RE5 O7 2_555 . 3_555 90.0 N
    O7 RE5 O7 2_555 . 9_555 90.0 N
    O7 RE5 O7 2_555 . 10_555 90.0 N
    O7 RE5 O7 2_555 . 11_555 180.0 N
    O7 RE5 O7 3_555 . 9_555 180.0 N
    O7 RE5 O7 3_555 . 10_555 90.0 N
    O7 RE5 O7 3_555 . 11_555 90.0 N
    O7 RE5 O7 9_555 . 10_555 90.0 N
    O7 RE5 O7 9_555 . 11_555 90.0 N
    O7 RE5 O7 10_555 . 11_555 90.0 N
    O7 FE6 O7 1_555 . 10_655 179.9604 N
    O7 FE6 O7 1_555 . 203_554 90.0 N
    O7 FE6 O7 1_555 . 209_555 90.0 N
    O7 FE6 O7 1_555 . 302_545 90.0 N
    O7 FE6 O7 1_555 . 311_555 90.0 N
    O7 FE6 O7 10_655 . 203_554 90.0 N
    O7 FE6 O7 10_655 . 209_555 90.0 N
    O7 FE6 O7 10_655 . 302_545 90.0 N
    O7 FE6 O7 10_655 . 311_555 90.0 N
    O7 FE6 O7 203_554 . 209_555 180.0 N
    O7 FE6 O7 203_554 . 302_545 90.0 N
    O7 FE6 O7 203_554 . 311_555 90.0 N
    O7 FE6 O7 209_555 . 302_545 90.0 N
    O7 FE6 O7 209_555 . 311_555 90.0 N
    O7 FE6 O7 302_545 . 311_555 180.0 N
    Fe O7 Re 1_555 . 1_555 180.0 N
    Fe O7 RE5 1_555 . 1_555 0.0 N
    Fe O7 FE6 1_555 . 1_555 180.0 N
    Re O7 RE5 1_555 . 1_555 180.0 N
    Re O7 FE6 1_555 . 1_555 0.0 N
    RE5 O7 FE6 1_555 . 1_555 180.0 N
data_T400KBST_phase_2
loop_
    _pd_block_diffractogram_id
    2005-10-18T16:18|T400KBST_H_01|Eduardo_Granado|XPD
_pd_block_id     2005-10-18T16:18|T400KBST_phase2|Eduardo_Granado||
_chemical_name_systematic     'iron oxide'
_chemical_name_common     'iron oxide'
_chemical_formula_moiety     'Fe3 O4'
_chemical_formula_sum     "Fe3 O4"
_chemical_formula_structural     'Fe3 O4'
_chemical_formula_analytical     'Fe3 O4'
_chemical_formula_weight     231.54
_chemical_melting_point     ?
_symmetry_cell_setting     cubic
_symmetry_space_group_name_H-M     'F d -3 m'
_symmetry_space_group_name_Hall     'F d -3 m'
loop_
    _symmetry_equiv_pos_site_id
    _symmetry_equiv_pos_as_xyz
    1 +x,+y,+z
    2 +z,+x,+y
    3 +y,+z,+x
    4 +x+1/4,+y+1/4,-z
    5 -z,+x+1/4,+y+1/4
    6 +y+1/4,-z,+x+1/4
    7 -z+1/4,+x+1/2,-y+3/4
    8 -y+3/4,-z+1/4,+x+1/2
    9 +y+1/2,-z+1/4,-x+3/4
    10 -x+3/4,+y+1/2,-z+1/4
    11 -z+1/4,-x+3/4,+y+1/2
    12 +x+1/2,-y+3/4,-z+1/4
    13 +y,+x,+z
    14 +z,+y,+x
    15 +x,+z,+y
    16 +y+1/4,+x+1/4,-z
    17 -z,+y+1/4,+x+1/4
    18 +x+1/4,-z,+y+1/4
    19 -z+1/4,+y+1/2,-x+3/4
    20 -x+3/4,-z+1/4,+y+1/2
    21 +x+1/2,-z+1/4,-y+3/4
    22 -y+3/4,+x+1/2,-z+1/4
    23 -z+1/4,-y+3/4,+x+1/2
    24 +y+1/2,-x+3/4,-z+1/4
    -1 -x,-y,-z
    -2 -z,-x,-y
    -3 -y,-z,-x
    -4 -x+3/4,-y+3/4,+z
    -5 +z,-x+3/4,-y+3/4
    -6 -y+3/4,+z,-x+3/4
    -7 +z+3/4,-x+1/2,+y+1/4
    -8 +y+1/4,+z+3/4,-x+1/2
    -9 -y+1/2,+z+3/4,+x+1/4
    -10 +x+1/4,-y+1/2,+z+3/4
    -11 +z+3/4,+x+1/4,-y+1/2
    -12 -x+1/2,+y+1/4,+z+3/4
    -13 -y,-x,-z
    -14 -z,-y,-x
    -15 -x,-z,-y
    -16 -y+3/4,-x+3/4,+z
    -17 +z,-y+3/4,-x+3/4
    -18 -x+3/4,+z,-y+3/4
    -19 +z+3/4,-y+1/2,+x+1/4
    -20 +x+1/4,+z+3/4,-y+1/2
    -21 -x+1/2,+z+3/4,+y+1/4
    -22 +y+1/4,-x+1/2,+z+3/4
    -23 +z+3/4,+y+1/4,-x+1/2
    -24 -y+1/2,+x+1/4,+z+3/4
    101 +x,+y+1/2,+z+1/2
    102 +z,+x+1/2,+y+1/2
    103 +y,+z+1/2,+x+1/2
    104 +x+1/4,+y+3/4,-z+1/2
    105 -z,+x+3/4,+y+3/4
    106 +y+1/4,-z+1/2,+x+3/4
    107 -z+1/4,+x,-y+1/4
    108 -y+3/4,-z+3/4,+x
    109 +y+1/2,-z+3/4,-x+1/4
    110 -x+3/4,+y,-z+3/4
    111 -z+1/4,-x+1/4,+y
    112 +x+1/2,-y+1/4,-z+3/4
    113 +y,+x+1/2,+z+1/2
    114 +z,+y+1/2,+x+1/2
    115 +x,+z+1/2,+y+1/2
    116 +y+1/4,+x+3/4,-z+1/2
    117 -z,+y+3/4,+x+3/4
    118 +x+1/4,-z+1/2,+y+3/4
    119 -z+1/4,+y,-x+1/4
    120 -x+3/4,-z+3/4,+y
    121 +x+1/2,-z+3/4,-y+1/4
    122 -y+3/4,+x,-z+3/4
    123 -z+1/4,-y+1/4,+x
    124 +y+1/2,-x+1/4,-z+3/4
    -101 -x,-y+1/2,-z+1/2
    -102 -z,-x+1/2,-y+1/2
    -103 -y,-z+1/2,-x+1/2
    -104 -x+3/4,-y+1/4,+z+1/2
    -105 +z,-x+1/4,-y+1/4
    -106 -y+3/4,+z+1/2,-x+1/4
    -107 +z+3/4,-x,+y+3/4
    -108 +y+1/4,+z+1/4,-x
    -109 -y+1/2,+z+1/4,+x+3/4
    -110 +x+1/4,-y,+z+1/4
    -111 +z+3/4,+x+3/4,-y
    -112 -x+1/2,+y+3/4,+z+1/4
    -113 -y,-x+1/2,-z+1/2
    -114 -z,-y+1/2,-x+1/2
    -115 -x,-z+1/2,-y+1/2
    -116 -y+3/4,-x+1/4,+z+1/2
    -117 +z,-y+1/4,-x+1/4
    -118 -x+3/4,+z+1/2,-y+1/4
    -119 +z+3/4,-y,+x+3/4
    -120 +x+1/4,+z+1/4,-y
    -121 -x+1/2,+z+1/4,+y+3/4
    -122 +y+1/4,-x,+z+1/4
    -123 +z+3/4,+y+3/4,-x
    -124 -y+1/2,+x+3/4,+z+1/4
    201 +x+1/2,+y,+z+1/2
    202 +z+1/2,+x,+y+1/2
    203 +y+1/2,+z,+x+1/2
    204 +x+3/4,+y+1/4,-z+1/2
    205 -z+1/2,+x+1/4,+y+3/4
    206 +y+3/4,-z,+x+3/4
    207 -z+3/4,+x+1/2,-y+1/4
    208 -y+1/4,-z+1/4,+x
    209 +y,-z+1/4,-x+1/4
    210 -x+1/4,+y+1/2,-z+3/4
    211 -z+3/4,-x+3/4,+y
    212 +x,-y+3/4,-z+3/4
    213 +y+1/2,+x,+z+1/2
    214 +z+1/2,+y,+x+1/2
    215 +x+1/2,+z,+y+1/2
    216 +y+3/4,+x+1/4,-z+1/2
    217 -z+1/2,+y+1/4,+x+3/4
    218 +x+3/4,-z,+y+3/4
    219 -z+3/4,+y+1/2,-x+1/4
    220 -x+1/4,-z+1/4,+y
    221 +x,-z+1/4,-y+1/4
    222 -y+1/4,+x+1/2,-z+3/4
    223 -z+3/4,-y+3/4,+x
    224 +y,-x+3/4,-z+3/4
    -201 -x+1/2,-y,-z+1/2
    -202 -z+1/2,-x,-y+1/2
    -203 -y+1/2,-z,-x+1/2
    -204 -x+1/4,-y+3/4,+z+1/2
    -205 +z+1/2,-x+3/4,-y+1/4
    -206 -y+1/4,+z,-x+1/4
    -207 +z+1/4,-x+1/2,+y+3/4
    -208 +y+3/4,+z+3/4,-x
    -209 -y,+z+3/4,+x+3/4
    -210 +x+3/4,-y+1/2,+z+1/4
    -211 +z+1/4,+x+1/4,-y
    -212 -x,+y+1/4,+z+1/4
    -213 -y+1/2,-x,-z+1/2
    -214 -z+1/2,-y,-x+1/2
    -215 -x+1/2,-z,-y+1/2
    -216 -y+1/4,-x+3/4,+z+1/2
    -217 +z+1/2,-y+3/4,-x+1/4
    -218 -x+1/4,+z,-y+1/4
    -219 +z+1/4,-y+1/2,+x+3/4
    -220 +x+3/4,+z+3/4,-y
    -221 -x,+z+3/4,+y+3/4
    -222 +y+3/4,-x+1/2,+z+1/4
    -223 +z+1/4,+y+1/4,-x
    -224 -y,+x+1/4,+z+1/4
    301 +x+1/2,+y+1/2,+z
    302 +z+1/2,+x+1/2,+y
    303 +y+1/2,+z+1/2,+x
    304 +x+3/4,+y+3/4,-z
    305 -z+1/2,+x+3/4,+y+1/4
    306 +y+3/4,-z+1/2,+x+1/4
    307 -z+3/4,+x,-y+3/4
    308 -y+1/4,-z+3/4,+x+1/2
    309 +y,-z+3/4,-x+3/4
    310 -x+1/4,+y,-z+1/4
    311 -z+3/4,-x+1/4,+y+1/2
    312 +x,-y+1/4,-z+1/4
    313 +y+1/2,+x+1/2,+z
    314 +z+1/2,+y+1/2,+x
    315 +x+1/2,+z+1/2,+y
    316 +y+3/4,+x+3/4,-z
    317 -z+1/2,+y+3/4,+x+1/4
    318 +x+3/4,-z+1/2,+y+1/4
    319 -z+3/4,+y,-x+3/4
    320 -x+1/4,-z+3/4,+y+1/2
    321 +x,-z+3/4,-y+3/4
    322 -y+1/4,+x,-z+1/4
    323 -z+3/4,-y+1/4,+x+1/2
    324 +y,-x+1/4,-z+1/4
    -301 -x+1/2,-y+1/2,-z
    -302 -z+1/2,-x+1/2,-y
    -303 -y+1/2,-z+1/2,-x
    -304 -x+1/4,-y+1/4,+z
    -305 +z+1/2,-x+1/4,-y+3/4
    -306 -y+1/4,+z+1/2,-x+3/4
    -307 +z+1/4,-x,+y+1/4
    -308 +y+3/4,+z+1/4,-x+1/2
    -309 -y,+z+1/4,+x+1/4
    -310 +x+3/4,-y,+z+3/4
    -311 +z+1/4,+x+3/4,-y+1/2
    -312 -x,+y+3/4,+z+3/4
    -313 -y+1/2,-x+1/2,-z
    -314 -z+1/2,-y+1/2,-x
    -315 -x+1/2,-z+1/2,-y
    -316 -y+1/4,-x+1/4,+z
    -317 +z+1/2,-y+1/4,-x+3/4
    -318 -x+1/4,+z+1/2,-y+3/4
    -319 +z+1/4,-y,+x+1/4
    -320 +x+3/4,+z+1/4,-y+1/2
    -321 -x,+z+1/4,+y+1/4
    -322 +y+3/4,-x,+z+3/4
    -323 +z+1/4,+y+3/4,-x+1/2
    -324 -y,+x+3/4,+z+3/4
_cell_length_a     8.3985(5)
_cell_length_b     8.3985
_cell_length_c     8.3985
_cell_angle_alpha     90.0
_cell_angle_beta     90.0
_cell_angle_gamma     90.0
_cell_volume     592.38(10)
_cell_formula_units_Z     8
_cell_measurement_temperature     400
_cell_special_details
; ?
;
_exptl_crystal_density_diffrn     ?
_exptl_crystal_density_meas     ?
_exptl_crystal_density_method     ?
_exptl_crystal_F_000     ?
_pd_char_particle_morphology     'powder'
loop_
    _atom_type_symbol
    _atom_type_number_in_cell
    Fe 24.0
    O 32.0
_computing_structure_solution     'GSAS (Larson & Von Dreele, 2001)'
_pd_phase_name     Fe3O4
loop_
    _atom_site_type_symbol
    _atom_site_label
    _atom_site_fract_x
    _atom_site_fract_y
    _atom_site_fract_z
    _atom_site_U_iso_or_equiv
    _atom_site_thermal_displace_type
    _atom_site_occupancy
    _atom_site_symmetry_multiplicity
    Fe Fe1 0.125 0.125 0.125 -0.016(4) Uiso 1.0 8
    Fe Fe2 0.5 0.5 0.5 -0.016(4) Uiso 1.0 16
    O O 0.246(10) 0.246(10) 0.246(10) -0.016(4) Uiso 1.0 32
_geom_special_details     ?
loop_
    _geom_bond_atom_site_label_1
    _geom_bond_atom_site_label_2
    _geom_bond_site_symmetry_1
    _geom_bond_site_symmetry_2
    _geom_bond_distance
    _geom_bond_publ_flag
    Fe1 O . 1_555 1.76(15) N
    Fe1 O . 107_555 1.76(15) N
    Fe1 O . 111_555 1.76(15) N
    Fe1 O . -105_544 1.76(15) N
    Fe2 O . 4_556 2.14(9) N
    Fe2 O . 5_655 2.14(9) N
    Fe2 O . 6_565 2.14(9) N
    Fe2 O . -4_555 2.14(9) N
    Fe2 O . -5_555 2.14(9) N
    Fe2 O . -6_555 2.14(9) N
    O Fe1 . 1_555 1.76(15) N
    O Fe2 . -4_555 2.14(9) N
    O Fe2 . -5_555 2.14(9) N
    O Fe2 . -6_555 2.14(9) N
loop_
    _geom_angle_atom_site_label_1
    _geom_angle_atom_site_label_2
    _geom_angle_atom_site_label_3
    _geom_angle_site_symmetry_1
    _geom_angle_site_symmetry_2
    _geom_angle_site_symmetry_3
    _geom_angle
    _geom_angle_publ_flag
    O Fe1 O 1_555 . 107_443 109.471(2)   N
    O Fe1 O 1_555 . 111_443 109.471(4) N
    O Fe1 O 1_555 . -105_454 109.471(2)   N
    O Fe1 O 107_443 . 111_443 109.471(2)   N
    O Fe1 O 107_443 . -105_454 109.471(4) N
    O Fe1 O 111_443 . -105_454 109.471(2)   N
    O Fe2 O 4_556 . 5_655 92(4) N
    O Fe2 O 4_556 . 6_565 92(4) N
    O Fe2 O 4_556 . -4_564 179.9557 N
    O Fe2 O 4_556 . -5_465 88(4) N
    O Fe2 O 4_556 . -6_555 88(4) N
    O Fe2 O 5_655 . 6_565 92(4) N
    O Fe2 O 5_655 . -4_564 88(4) N
    O Fe2 O 5_655 . -5_465 179.9557 N
    O Fe2 O 5_655 . -6_555 88(4) N
    O Fe2 O 6_565 . -4_564 88(4) N
    O Fe2 O 6_565 . -5_465 88(4) N
    O Fe2 O 6_565 . -6_555 179.9557 N
    O Fe2 O -4_564 . -5_465 92(4) N
    O Fe2 O -4_564 . -6_555 92(4) N
    O Fe2 O -5_465 . -6_555 92(4) N
    Fe1 O Fe2 1_555 . -4_654 127.(3)   N
    Fe1 O Fe2 1_555 . -5_555 127.(3)   N
    Fe1 O Fe2 1_555 . -6_645 127.(3)   N
    Fe2 O Fe2 -4_654 . -5_555 88(5) N
    Fe2 O Fe2 -4_654 . -6_645 88(5) N
    Fe2 O Fe2 -5_555 . -6_645 88(5) N
data_T14KBST_p_01
_pd_block_id     2005-10-18T16:18|T14KBST_H_01|Eduardo_Granado|XPD
_exptl_absorpt_process_details
;   GSAS Absorption/surface roughness correction: function number 3
 Surface roughness abs. correction (Suortti)
Terms =     0.43530E-02    0.92960E-01
Correction is not refined.
;
_exptl_absorpt_correction_T_min     0.57311
_exptl_absorpt_correction_T_max     0.99868
_exptl_special_details
; ?
;
_diffrn_ambient_temperature     1
_diffrn_radiation_type     synchrotron
_diffrn_radiation_wavelength     1.377285
_diffrn_radiation_monochromator     'Si 111'
_diffrn_measurement_device_type     'Huber 4+2 circle diffractometer'
_pd_instr_dist_src/mono     8620
_pd_instr_dist_mono/spec     13340
_pd_instr_dist_src/spec     21960
_pd_instr_dist_spec/anal     580
_pd_instr_dist_anal/detc     40
_pd_instr_dist_spec/detc     620
_pd_instr_location     'Huber diffractometer, D10B-XPD beamline, LNLS (Brazil)'
_pd_meas_2theta_range_min     15.0
_pd_meas_2theta_range_max     150.19
_pd_meas_2theta_range_inc     0.01
_pd_meas_number_of_points     13520
_pd_meas_scan_method     'step'
_pd_meas_special_details
;  ?
;
_reflns_number_total     183
loop_
    _atom_type_symbol
    _atom_type_scat_Cromer_Mann_a1
    _atom_type_scat_Cromer_Mann_a2
    _atom_type_scat_Cromer_Mann_a3
    _atom_type_scat_Cromer_Mann_a4
    _atom_type_scat_Cromer_Mann_b1
    _atom_type_scat_Cromer_Mann_b2
    _atom_type_scat_Cromer_Mann_b3
    _atom_type_scat_Cromer_Mann_b4
    _atom_type_scat_Cromer_Mann_c
    _atom_type_scat_dispersion_real
    _atom_type_scat_dispersion_imag
    _atom_type_scat_source
    Ba 20.3361 3.21600 19.2970 0.27560 10.8880 20.2073 2.69590 167.202 2.77310
                                                                           0.000
                                                                           0.000
                                                      International_Tables_Vol_C
    Fe 11.7695 4.76110 7.35730 0.30720 3.52220 15.3535 2.30450 76.8805 1.03690
                                                                           0.000
                                                                           0.000
                                                      International_Tables_Vol_C
    Re 28.7621 1.67191 15.7189 9.09227 14.5564 0.35050 5.44174 52.0861 10.4720
                                                                           0.000
                                                                           0.000
                                                      International_Tables_Vol_C
    O 3.04850 13.2771 2.28680 5.70110 1.54630 0.32390 0.86700 32.9089 0.25080
                                                                           0.000
                                                                           0.000
                                                      International_Tables_Vol_C
_computing_data_collection     'SPEC (Certified Scientific Software, 1992)'
_computing_data_reduction     'POWF 2.11 (Virginia Tech, 2001-2003)'
_pd_calibration_special_details     'LaB6 measurement'
loop_
    _pd_phase_id
    _pd_phase_block_id
    _pd_phase_mass_%
    2 2005-10-18T16:18|T14KBST_phase2|Eduardo_Granado|| 2.32(17)
    3 2005-10-18T16:18|T14KBST_phase3|Eduardo_Granado|| 97.68
_pd_proc_2theta_range_min     15.003
_pd_proc_2theta_range_max     150.19299
_pd_proc_2theta_range_inc     0.01
_pd_calc_method     "Rietveld Refinement"
_pd_proc_info_data_reduction     ?
_pd_proc_info_datetime     2005-10-18T16:18:44
_pd_proc_info_excluded_regions
; ?
;
_pd_proc_ls_background_function
;   GSAS Background function number 2 with 10 terms.
 Cosine Fourier series
      1:    1.69071     2:   -2.03612     3:   -3.99352     4:   -3.60868
      5:   -3.03652     6:   -2.11781     7:   -1.58570     8:   -1.02935
      9:  -0.776166    10:  -0.281473
;
loop_
    _pd_proc_ls_peak_cutoff
    0.00100
    0.00100
_pd_proc_ls_prof_R_factor     0.1681
_pd_proc_ls_prof_wR_factor     0.2672
_pd_proc_ls_prof_wR_expected     0.1945
loop_
    _pd_proc_ls_profile_function
;
 CW Profile function number 2 with  18 terms
 Profile coefficients for Simpson's rule integration of pseudovoigt function
 C.J. Howard (1982). J. Appl. Cryst.,15,615-620.
 P. Thompson, D.E. Cox & J.B. Hastings (1987). J. Appl. Cryst.,20,79-83.
 #1(GU)   =    0.000 #2(GV)   =    0.000 #3(GW)   =    0.000
 #4(LX)   =    0.000 #5(LY)   =   19.847 #6(trns) =    0.000
 #7(asym) =   0.0000 #8(shft) =   0.0000 #9(GP)   =    0.000
 #10(stec)=     0.00 #11(ptec)=     0.00 #12(sfec)=     0.00
 #13(L11) =    0.000 #14(L22) =    0.000 #15(L33) =    0.000
 #16(L12) =    0.000 #17(L13) =    0.000 #18(L23) =    0.000
 Peak tails are ignored  where the intensity is below 0.0010 times the peak
   Aniso. broadening axis   0.0   0.0   1.0
;
;
 CW Profile function number 2 with  18 terms
 Profile coefficients for Simpson's rule integration of pseudovoigt function
 C.J. Howard (1982). J. Appl. Cryst.,15,615-620.
 P. Thompson, D.E. Cox & J.B. Hastings (1987). J. Appl. Cryst.,20,79-83.
 #1(GU)   =    8.917 #2(GV)   =    4.299 #3(GW)   =   -0.168
 #4(LX)   =    0.000 #5(LY)   =    7.306 #6(trns) =    0.000
 #7(asym) =   0.0000 #8(shft) =   0.0000 #9(GP)   =    0.000
 #10(stec)=     0.00 #11(ptec)=     0.00 #12(sfec)=     0.00
 #13(L11) =    0.000 #14(L22) =    0.000 #15(L33) =    0.000
 #16(L12) =    0.000 #17(L13) =    0.000 #18(L23) =    0.000
 Peak tails are ignored  where the intensity is below 0.0010 times the peak
   Aniso. broadening axis   0.0   0.0   1.0
;
_pd_proc_number_of_points     13520
_pd_spec_mount_mode     'reflection'
_pd_spec_mounting     'copper sample holder'
_pd_spec_shape     'flat_sheet'
_pd_spec_size_axial     20
_pd_spec_size_equat     10
_pd_spec_size_thick     0.2
data_T400KBST_p_01
_pd_block_id     2005-10-18T16:18|T400KBST_H_01|Eduardo_Granado|XPD
_exptl_absorpt_process_details
;   GSAS Absorption/surface roughness correction: function number 3
 Surface roughness abs. correction (Suortti)
Terms =     0.43528E-02    0.92958E-01
Correction is not refined.
;
_exptl_absorpt_correction_T_min     0.57236
_exptl_absorpt_correction_T_max     0.99849
_exptl_special_details
; ?
;
_diffrn_ambient_temperature     1
_diffrn_radiation_type     ?
_diffrn_radiation_wavelength     1.377287
_diffrn_radiation_monochromator     'Si 111'
_diffrn_measurement_device_type     'Huber 4+2 circle diffractometer'
_pd_instr_dist_src/mono     8620
_pd_instr_dist_mono/spec     13340
_pd_instr_dist_src/spec     21960
_pd_instr_dist_spec/anal     580
_pd_instr_dist_anal/detc     40
_pd_instr_dist_spec/detc     620
_pd_instr_location     'Huber diffractometer, D10B-XPD beamline, LNLS (Brazil)'
_pd_meas_2theta_range_min     15.0
_pd_meas_2theta_range_max     150.19
_pd_meas_2theta_range_inc     0.01
_pd_meas_number_of_points     13520
_pd_meas_scan_method     'step'
_pd_meas_special_details
;  ?
;
_reflns_number_total     112
loop_
    _atom_type_symbol
    _atom_type_scat_Cromer_Mann_a1
    _atom_type_scat_Cromer_Mann_a2
    _atom_type_scat_Cromer_Mann_a3
    _atom_type_scat_Cromer_Mann_a4
    _atom_type_scat_Cromer_Mann_b1
    _atom_type_scat_Cromer_Mann_b2
    _atom_type_scat_Cromer_Mann_b3
    _atom_type_scat_Cromer_Mann_b4
    _atom_type_scat_Cromer_Mann_c
    _atom_type_scat_dispersion_real
    _atom_type_scat_dispersion_imag
    _atom_type_scat_source
    Ba 20.3361 3.21600 19.2970 0.27560 10.8880 20.2073 2.69590 167.202 2.77310
                                                                           0.000
                                                                           0.000
                                                      International_Tables_Vol_C
    Fe 11.7695 4.76110 7.35730 0.30720 3.52220 15.3535 2.30450 76.8805 1.03690
                                                                           0.000
                                                                           0.000
                                                      International_Tables_Vol_C
    Re 28.7621 1.67191 15.7189 9.09227 14.5564 0.35050 5.44174 52.0861 10.4720
                                                                           0.000
                                                                           0.000
                                                      International_Tables_Vol_C
    O 3.04850 13.2771 2.28680 5.70110 1.54630 0.32390 0.86700 32.9089 0.25080
                                                                           0.000
                                                                           0.000
                                                      International_Tables_Vol_C
_computing_data_collection     'SPEC (Certified Scientific Software, 1992)'
_computing_data_reduction     'POWF 2.11 (Virginia Tech, 2001-2003)'
_pd_calibration_special_details     'LaB6 measurement'
loop_
    _pd_phase_id
    _pd_phase_block_id
    _pd_phase_mass_%
    1 2005-10-18T16:18|T400KBST_phase1|Eduardo_Granado|| 99.21
    2 2005-10-18T16:18|T400KBST_phase2|Eduardo_Granado|| 0.79(9)
_pd_proc_2theta_range_min     15.003
_pd_proc_2theta_range_max     150.19299
_pd_proc_2theta_range_inc     0.01
_pd_calc_method     "Rietveld Refinement"
_pd_proc_info_data_reduction     ?
_pd_proc_info_datetime     2005-10-18T16:18:00
_pd_proc_info_excluded_regions
; ?
;
_pd_proc_ls_background_function
;   GSAS Background function number 2 with 10 terms.
 Cosine Fourier series
      1:    5.36654     2:    1.01816     3:   -5.78612     4:  -0.425017
      5:   -3.39798     6:  -0.251197     7:   -1.97797     8:   0.272396
      9:  -0.804030    10:   0.197454
;
loop_
    _pd_proc_ls_peak_cutoff
    0.00100
    0.00100
_pd_proc_ls_prof_R_factor     0.1494
_pd_proc_ls_prof_wR_factor     0.2206
_pd_proc_ls_prof_wR_expected     0.1702
loop_
    _pd_proc_ls_profile_function
;
 CW Profile function number 2 with  18 terms
 Profile coefficients for Simpson's rule integration of pseudovoigt function
 C.J. Howard (1982). J. Appl. Cryst.,15,615-620.
 P. Thompson, D.E. Cox & J.B. Hastings (1987). J. Appl. Cryst.,20,79-83.
 #1(GU)   =    1.637 #2(GV)   =    2.828 #3(GW)   =    0.012
 #4(LX)   =    0.000 #5(LY)   =    8.663 #6(trns) =    0.000
 #7(asym) =   0.0000 #8(shft) =   0.0000 #9(GP)   =    0.000
 #10(stec)=     0.00 #11(ptec)=     0.00 #12(sfec)=     0.00
 #13(L11) =    0.000 #14(L22) =    0.000 #15(L33) =    0.000
 #16(L12) =    0.000 #17(L13) =    0.000 #18(L23) =    0.000
 Peak tails are ignored  where the intensity is below 0.0010 times the peak
   Aniso. broadening axis   0.0   0.0   1.0
;
;
 CW Profile function number 2 with  18 terms
 Profile coefficients for Simpson's rule integration of pseudovoigt function
 C.J. Howard (1982). J. Appl. Cryst.,15,615-620.
 P. Thompson, D.E. Cox & J.B. Hastings (1987). J. Appl. Cryst.,20,79-83.
 #1(GU)   =    0.000 #2(GV)   =    0.000 #3(GW)   =    0.000
 #4(LX)   =    0.000 #5(LY)   =   12.919 #6(trns) =    0.000
 #7(asym) =   0.0000 #8(shft) =   0.0000 #9(GP)   =    0.000
 #10(stec)=     0.00 #11(ptec)=     0.00 #12(sfec)=     0.00
 #13(L11) =    0.000 #14(L22) =    0.000 #15(L33) =    0.000
 #16(L12) =    0.000 #17(L13) =    0.000 #18(L23) =    0.000
 Peak tails are ignored  where the intensity is below 0.0010 times the peak
   Aniso. broadening axis   0.0   0.0   1.0
;
_pd_proc_number_of_points     13520
_pd_spec_mount_mode     'reflection'
_pd_spec_mounting     'copper sample holder'
_pd_spec_shape     'flat_sheet'
_pd_spec_size_axial     20
_pd_spec_size_equat     10
_pd_spec_size_thick     0.2

