##############################################################################
#                                                                            #
# This CIF contains the data in a paper accepted for publication in Journal  #
# of Synchrotron Radiation. It has been peer reviewed under the auspices     #
# of the IUCr Commission on Journals.                                        #
#                                                                            #
# Full details of the Crystallographic Information File format               #
# are given in the paper "The Crystallographic Information File (CIF):       #
# a New Standard Archive File for Crystallography" by S. R. Hall, F. H.      #
# Allen and I. D. Brown [Acta Cryst. (1991), A47, 655-685].                  #
#                                                                            #
# The current version of the core CIF dictionary may be obtained from        #
# ftp://ftp.iucr.org/pub/cif_core.dic. The current version number is 2.1.    #
#                                                                            #
# Software is freely available for graphical display of the structure(s) in  #
# this CIF.  For information consult the CIF home page http://www.iucr.org/  #
# cif/home.html                                                              #
#                                                                            #
# This file may be used for bona fide research purposes within the           #
# scientific community so long as proper attribution is given to the journal #
# article from which it was obtained.                                        #
#                                                                            #
##############################################################################


data_global
_publ_contact_author_name      'Michela Brunelli'
_publ_contact_author_email      brunelli@esrf.fr
_publ_contact_author_fax          '+33 (0)4 76 88 29 07'
_publ_contact_author_phone    '+33 (0)4 76 88 27 20'
loop_
_publ_author_name 
'Michela Brunelli'
'Andrew N. Fitch'
 
_journal_name_full                     'Journal of Synchrotron Radiation'
data_I
_chemical_name_common         '1,2-dichlorotrifluoroethane, HCFC123a'     
_chemical_formula_structural      CHClFCClF2
_chemical_formula_sum             C2HCl2F3
_chemical_formula_weight          152.93
_chemical_melting_point              78
_diffrn_ambient_temperature       60

_symmetry_cell_setting             hexagonal
_symmetry_space_group_name_H-M 'P 63/m m c'
loop_
  _symmetry_equiv_pos_as_xyz
  'x,y,z'
  '-x,-y,-z'
  'x-y,x,1/2+z'
  'x-y,-y,-z'
  '-x+y,-x,1/2-z'
  '-x+y,y,z'
  '-y,x-y,z'
  'x,x-y,1/2-z'
  'y,-x+y,-z'
  '-x,-x+y,1/2+z'
  '-y,-x,1/2-z'
  'y,x,1/2+z'
  '-x,-x+y,-z'
  'y,-x+y,1/2+z'
  'x,x-y,z'
  '-y,x-y,1/2-z'
  '-x,-y,1/2+z'
  'y,x,-z'
  'x,y,1/2-z'
  '-y,-x,z'
  '-x+y,y,1/2-z'
  '-x+y,-x,z'
  'x-y,-y,1/2+z'
  'x-y,x,-z'
_cell_length_a       4.000
_cell_length_b       4.000
_cell_length_c       6.523
_cell_angle_alpha   90.0000
_cell_angle_beta    90.0000
_cell_angle_gamma  120.0000
_cell_volume        90.37
_cell_formula_units_Z  ?
_diffrn_radiation_type           synchrotron
_diffrn_radiation_wavelength     0.401340
_refine_ls_goodness_of_fit_all   2.901
loop_
  _atom_site_label
  _atom_site_fract_x
  _atom_site_fract_y
  _atom_site_fract_z
  _atom_site_occupancy
  _atom_site_adp_type
  _atom_site_B_iso_or_equiv
  C       -0.14036    0.39482    0.04282 1.000 Biso 3.00
  C        0.29145    0.69269    0.04592 1.000 Biso 3.00
  Cl      -0.34393    0.41134   -0.19441 1.000 Biso 3.00
  Cl       0.49659    0.68285    0.28375 1.000 Biso 3.00
  F       -0.31455    0.47429    0.19040 1.000 Biso 3.00
  F       -0.19820    0.04516    0.07190 1.000 Biso 3.00
  F        0.46472    0.60928   -0.10377 1.000 Biso 3.00
  H        0.33420    0.97862    0.02355 1.000 Biso 6.00

